# vtk DataFile Version 2.0
Unstructured Grid Example
ASCII
DATASET UNSTRUCTURED_GRID

POINTS 16 float
0 0 0 
3 0 0 
3 3 0 
0 3 0 
1 0 0 
2 0 0 
3 1 0 
3 2 0 
2 3 0 
1 3 0 
0 2 0 
0 1 0 
2 2 0 
2 1 0 
1 2 0 
1 1 0 

CELLS 9 45
4 2 8 12 7 
4 7 12 13 6 
4 6 13 5 1 
4 8 9 14 12 
4 12 14 15 13 
4 13 15 4 5 
4 9 3 10 14 
4 14 10 11 15 
4 15 11 0 4 

CELL_TYPES 9
9
9
9
9
9
9
9
9
9

CELL_DATA 9
SCALARS rho float 1
LOOKUP_TABLE default
1.16144
1.16144
1.16144
1.16144
1.16144
1.16144
1.16144
1.16144
1.16144

SCALARS e float 1
LOOKUP_TABLE default
250000
250000
250000
250000
250000
250000
250000
250000
250000

VECTORS velocity float
-1.38778e-17 -1.38778e-17 0
0 1.38778e-17 0
1.38778e-17 0 0
2.77556e-18 0 0
-2.77556e-18 0 0
-1.38778e-17 0 0
8.32667e-18 1.38778e-17 0
-1.66533e-17 1.38778e-17 0
-1.38778e-17 0 0

