# vtk DataFile Version 2.0
Unstructured Grid Example
ASCII
DATASET UNSTRUCTURED_GRID

POINTS 342 float
0 0 0 
1 0 0 
2 0 0 
3 0 0 
3 1 0 
2 1 0 
1 1 0 
0 1 0 
1.5 -1.3 0 
1.09673 0.0331807 0 
1.19563 0.0591753 0 
1.29617 0.0778436 0 
1.39781 0.089085 0 
1.5 0.0928388 0 
1.60219 0.089085 0 
1.70383 0.0778436 0 
1.80437 0.0591753 0 
1.90327 0.0331807 0 
0.1 0 0 
0.2 0 0 
0.3 0 0 
0.4 0 0 
0.5 0 0 
0.6 0 0 
0.7 0 0 
0.8 0 0 
0.9 0 0 
2.1 0 0 
2.2 0 0 
2.3 0 0 
2.4 0 0 
2.5 0 0 
2.6 0 0 
2.7 0 0 
2.8 0 0 
2.9 0 0 
3 0.1 0 
3 0.2 0 
3 0.3 0 
3 0.4 0 
3 0.5 0 
3 0.6 0 
3 0.7 0 
3 0.8 0 
3 0.9 0 
2.9 1 0 
2.8 1 0 
2.7 1 0 
2.6 1 0 
2.5 1 0 
2.4 1 0 
2.3 1 0 
2.2 1 0 
2.1 1 0 
1.9 1 0 
1.8 1 0 
1.7 1 0 
1.6 1 0 
1.5 1 0 
1.4 1 0 
1.3 1 0 
1.2 1 0 
1.1 1 0 
0.9 1 0 
0.8 1 0 
0.7 1 0 
0.6 1 0 
0.5 1 0 
0.4 1 0 
0.3 1 0 
0.2 1 0 
0.1 1 0 
0 0.9 0 
0 0.8 0 
0 0.7 0 
0 0.6 0 
0 0.5 0 
0 0.4 0 
0 0.3 0 
0 0.2 0 
0 0.1 0 
1 0.1 0 
1 0.2 0 
1 0.3 0 
1 0.4 0 
1 0.5 0 
1 0.6 0 
1 0.7 0 
1 0.8 0 
1 0.9 0 
2 0.1 0 
2 0.2 0 
2 0.3 0 
2 0.4 0 
2 0.5 0 
2 0.6 0 
2 0.7 0 
2 0.8 0 
2 0.9 0 
2.9 0.9 0 
2.9 0.8 0 
2.9 0.7 0 
2.9 0.6 0 
2.9 0.5 0 
2.9 0.4 0 
2.9 0.3 0 
2.9 0.2 0 
2.9 0.1 0 
2.8 0.9 0 
2.8 0.8 0 
2.8 0.7 0 
2.8 0.6 0 
2.8 0.5 0 
2.8 0.4 0 
2.8 0.3 0 
2.8 0.2 0 
2.8 0.1 0 
2.7 0.9 0 
2.7 0.8 0 
2.7 0.7 0 
2.7 0.6 0 
2.7 0.5 0 
2.7 0.4 0 
2.7 0.3 0 
2.7 0.2 0 
2.7 0.1 0 
2.6 0.9 0 
2.6 0.8 0 
2.6 0.7 0 
2.6 0.6 0 
2.6 0.5 0 
2.6 0.4 0 
2.6 0.3 0 
2.6 0.2 0 
2.6 0.1 0 
2.5 0.9 0 
2.5 0.8 0 
2.5 0.7 0 
2.5 0.6 0 
2.5 0.5 0 
2.5 0.4 0 
2.5 0.3 0 
2.5 0.2 0 
2.5 0.1 0 
2.4 0.9 0 
2.4 0.8 0 
2.4 0.7 0 
2.4 0.6 0 
2.4 0.5 0 
2.4 0.4 0 
2.4 0.3 0 
2.4 0.2 0 
2.4 0.1 0 
2.3 0.9 0 
2.3 0.8 0 
2.3 0.7 0 
2.3 0.6 0 
2.3 0.5 0 
2.3 0.4 0 
2.3 0.3 0 
2.3 0.2 0 
2.3 0.1 0 
2.2 0.9 0 
2.2 0.8 0 
2.2 0.7 0 
2.2 0.6 0 
2.2 0.5 0 
2.2 0.4 0 
2.2 0.3 0 
2.2 0.2 0 
2.2 0.1 0 
2.1 0.9 0 
2.1 0.8 0 
2.1 0.7 0 
2.1 0.6 0 
2.1 0.5 0 
2.1 0.4 0 
2.1 0.3 0 
2.1 0.2 0 
2.1 0.1 0 
1.9002 0.902854 0 
1.90039 0.805676 0 
1.90057 0.708488 0 
1.90076 0.611297 0 
1.90094 0.514105 0 
1.90113 0.416913 0 
1.90131 0.319725 0 
1.90153 0.222645 0 
1.90195 0.12634 0 
1.80029 0.905259 0 
1.80057 0.810467 0 
1.80084 0.715656 0 
1.80111 0.620839 0 
1.80138 0.526021 0 
1.80165 0.431202 0 
1.80193 0.336405 0 
1.80226 0.241842 0 
1.80288 0.148554 0 
1.70026 0.907047 0 
1.70052 0.814034 0 
1.70076 0.720995 0 
1.70101 0.627949 0 
1.70126 0.534901 0 
1.70151 0.441854 0 
1.70176 0.348845 0 
1.70208 0.256149 0 
1.70263 0.164915 0 
1.60015 0.90814 0 
1.60029 0.816214 0 
1.60042 0.724261 0 
1.60056 0.632299 0 
1.60069 0.540334 0 
1.60083 0.448373 0 
1.60097 0.35646 0 
1.60116 0.264894 0 
1.6015 0.17486 0 
1.49998 0.908503 0 
1.49996 0.816939 0 
1.49994 0.725346 0 
1.49991 0.633744 0 
1.49989 0.542139 0 
1.49987 0.450539 0 
1.49985 0.358992 0 
1.49986 0.267805 0 
1.49991 0.178176 0 
1.39982 0.908126 0 
1.39964 0.816183 0 
1.39946 0.724212 0 
1.39928 0.632231 0 
1.3991 0.540247 0 
1.39893 0.448269 0 
1.39875 0.356346 0 
1.39857 0.264787 0 
1.39833 0.174791 0 
1.29971 0.907005 0 
1.29943 0.813943 0 
1.29915 0.720852 0 
1.29887 0.62775 0 
1.2986 0.534646 0 
1.29832 0.441548 0 
1.29804 0.348506 0 
1.29774 0.255828 0 
1.29724 0.164706 0 
1.19971 0.905163 0 
1.19943 0.810263 0 
1.19915 0.715337 0 
1.19888 0.620401 0 
1.1986 0.525463 0 
1.19833 0.430531 0 
1.19805 0.335654 0 
1.19772 0.241126 0 
1.19711 0.148088 0 
1.09982 0.902723 0 
1.09965 0.805404 0 
1.09949 0.708068 0 
1.09932 0.610725 0 
1.09916 0.513381 0 
1.099 0.416043 0 
1.09883 0.318749 0 
1.09861 0.221713 0 
1.09814 0.125744 0 
0.9 0.9 0 
0.9 0.8 0 
0.9 0.7 0 
0.9 0.6 0 
0.9 0.5 0 
0.9 0.4 0 
0.9 0.3 0 
0.9 0.2 0 
0.9 0.1 0 
0.8 0.9 0 
0.8 0.8 0 
0.8 0.7 0 
0.8 0.6 0 
0.8 0.5 0 
0.8 0.4 0 
0.8 0.3 0 
0.8 0.2 0 
0.8 0.1 0 
0.7 0.9 0 
0.7 0.8 0 
0.7 0.7 0 
0.7 0.6 0 
0.7 0.5 0 
0.7 0.4 0 
0.7 0.3 0 
0.7 0.2 0 
0.7 0.1 0 
0.6 0.9 0 
0.6 0.8 0 
0.6 0.7 0 
0.6 0.6 0 
0.6 0.5 0 
0.6 0.4 0 
0.6 0.3 0 
0.6 0.2 0 
0.6 0.1 0 
0.5 0.9 0 
0.5 0.8 0 
0.5 0.7 0 
0.5 0.6 0 
0.5 0.5 0 
0.5 0.4 0 
0.5 0.3 0 
0.5 0.2 0 
0.5 0.1 0 
0.4 0.9 0 
0.4 0.8 0 
0.4 0.7 0 
0.4 0.6 0 
0.4 0.5 0 
0.4 0.4 0 
0.4 0.3 0 
0.4 0.2 0 
0.4 0.1 0 
0.3 0.9 0 
0.3 0.8 0 
0.3 0.7 0 
0.3 0.6 0 
0.3 0.5 0 
0.3 0.4 0 
0.3 0.3 0 
0.3 0.2 0 
0.3 0.1 0 
0.2 0.9 0 
0.2 0.8 0 
0.2 0.7 0 
0.2 0.6 0 
0.2 0.5 0 
0.2 0.4 0 
0.2 0.3 0 
0.2 0.2 0 
0.2 0.1 0 
0.1 0.9 0 
0.1 0.8 0 
0.1 0.7 0 
0.1 0.6 0 
0.1 0.5 0 
0.1 0.4 0 
0.1 0.3 0 
0.1 0.2 0 
0.1 0.1 0 

CELLS 300 1500
4 4 45 99 44 
4 44 99 100 43 
4 43 100 101 42 
4 42 101 102 41 
4 41 102 103 40 
4 40 103 104 39 
4 39 104 105 38 
4 38 105 106 37 
4 37 106 107 36 
4 36 107 35 3 
4 45 46 108 99 
4 99 108 109 100 
4 100 109 110 101 
4 101 110 111 102 
4 102 111 112 103 
4 103 112 113 104 
4 104 113 114 105 
4 105 114 115 106 
4 106 115 116 107 
4 107 116 34 35 
4 46 47 117 108 
4 108 117 118 109 
4 109 118 119 110 
4 110 119 120 111 
4 111 120 121 112 
4 112 121 122 113 
4 113 122 123 114 
4 114 123 124 115 
4 115 124 125 116 
4 116 125 33 34 
4 47 48 126 117 
4 117 126 127 118 
4 118 127 128 119 
4 119 128 129 120 
4 120 129 130 121 
4 121 130 131 122 
4 122 131 132 123 
4 123 132 133 124 
4 124 133 134 125 
4 125 134 32 33 
4 48 49 135 126 
4 126 135 136 127 
4 127 136 137 128 
4 128 137 138 129 
4 129 138 139 130 
4 130 139 140 131 
4 131 140 141 132 
4 132 141 142 133 
4 133 142 143 134 
4 134 143 31 32 
4 49 50 144 135 
4 135 144 145 136 
4 136 145 146 137 
4 137 146 147 138 
4 138 147 148 139 
4 139 148 149 140 
4 140 149 150 141 
4 141 150 151 142 
4 142 151 152 143 
4 143 152 30 31 
4 50 51 153 144 
4 144 153 154 145 
4 145 154 155 146 
4 146 155 156 147 
4 147 156 157 148 
4 148 157 158 149 
4 149 158 159 150 
4 150 159 160 151 
4 151 160 161 152 
4 152 161 29 30 
4 51 52 162 153 
4 153 162 163 154 
4 154 163 164 155 
4 155 164 165 156 
4 156 165 166 157 
4 157 166 167 158 
4 158 167 168 159 
4 159 168 169 160 
4 160 169 170 161 
4 161 170 28 29 
4 52 53 171 162 
4 162 171 172 163 
4 163 172 173 164 
4 164 173 174 165 
4 165 174 175 166 
4 166 175 176 167 
4 167 176 177 168 
4 168 177 178 169 
4 169 178 179 170 
4 170 179 27 28 
4 53 5 98 171 
4 171 98 97 172 
4 172 97 96 173 
4 173 96 95 174 
4 174 95 94 175 
4 175 94 93 176 
4 176 93 92 177 
4 177 92 91 178 
4 178 91 90 179 
4 179 90 2 27 
4 5 54 180 98 
4 98 180 181 97 
4 97 181 182 96 
4 96 182 183 95 
4 95 183 184 94 
4 94 184 185 93 
4 93 185 186 92 
4 92 186 187 91 
4 91 187 188 90 
4 90 188 17 2 
4 54 55 189 180 
4 180 189 190 181 
4 181 190 191 182 
4 182 191 192 183 
4 183 192 193 184 
4 184 193 194 185 
4 185 194 195 186 
4 186 195 196 187 
4 187 196 197 188 
4 188 197 16 17 
4 55 56 198 189 
4 189 198 199 190 
4 190 199 200 191 
4 191 200 201 192 
4 192 201 202 193 
4 193 202 203 194 
4 194 203 204 195 
4 195 204 205 196 
4 196 205 206 197 
4 197 206 15 16 
4 56 57 207 198 
4 198 207 208 199 
4 199 208 209 200 
4 200 209 210 201 
4 201 210 211 202 
4 202 211 212 203 
4 203 212 213 204 
4 204 213 214 205 
4 205 214 215 206 
4 206 215 14 15 
4 57 58 216 207 
4 207 216 217 208 
4 208 217 218 209 
4 209 218 219 210 
4 210 219 220 211 
4 211 220 221 212 
4 212 221 222 213 
4 213 222 223 214 
4 214 223 224 215 
4 215 224 13 14 
4 58 59 225 216 
4 216 225 226 217 
4 217 226 227 218 
4 218 227 228 219 
4 219 228 229 220 
4 220 229 230 221 
4 221 230 231 222 
4 222 231 232 223 
4 223 232 233 224 
4 224 233 12 13 
4 59 60 234 225 
4 225 234 235 226 
4 226 235 236 227 
4 227 236 237 228 
4 228 237 238 229 
4 229 238 239 230 
4 230 239 240 231 
4 231 240 241 232 
4 232 241 242 233 
4 233 242 11 12 
4 60 61 243 234 
4 234 243 244 235 
4 235 244 245 236 
4 236 245 246 237 
4 237 246 247 238 
4 238 247 248 239 
4 239 248 249 240 
4 240 249 250 241 
4 241 250 251 242 
4 242 251 10 11 
4 61 62 252 243 
4 243 252 253 244 
4 244 253 254 245 
4 245 254 255 246 
4 246 255 256 247 
4 247 256 257 248 
4 248 257 258 249 
4 249 258 259 250 
4 250 259 260 251 
4 251 260 9 10 
4 62 6 89 252 
4 252 89 88 253 
4 253 88 87 254 
4 254 87 86 255 
4 255 86 85 256 
4 256 85 84 257 
4 257 84 83 258 
4 258 83 82 259 
4 259 82 81 260 
4 260 81 1 9 
4 6 63 261 89 
4 89 261 262 88 
4 88 262 263 87 
4 87 263 264 86 
4 86 264 265 85 
4 85 265 266 84 
4 84 266 267 83 
4 83 267 268 82 
4 82 268 269 81 
4 81 269 26 1 
4 63 64 270 261 
4 261 270 271 262 
4 262 271 272 263 
4 263 272 273 264 
4 264 273 274 265 
4 265 274 275 266 
4 266 275 276 267 
4 267 276 277 268 
4 268 277 278 269 
4 269 278 25 26 
4 64 65 279 270 
4 270 279 280 271 
4 271 280 281 272 
4 272 281 282 273 
4 273 282 283 274 
4 274 283 284 275 
4 275 284 285 276 
4 276 285 286 277 
4 277 286 287 278 
4 278 287 24 25 
4 65 66 288 279 
4 279 288 289 280 
4 280 289 290 281 
4 281 290 291 282 
4 282 291 292 283 
4 283 292 293 284 
4 284 293 294 285 
4 285 294 295 286 
4 286 295 296 287 
4 287 296 23 24 
4 66 67 297 288 
4 288 297 298 289 
4 289 298 299 290 
4 290 299 300 291 
4 291 300 301 292 
4 292 301 302 293 
4 293 302 303 294 
4 294 303 304 295 
4 295 304 305 296 
4 296 305 22 23 
4 67 68 306 297 
4 297 306 307 298 
4 298 307 308 299 
4 299 308 309 300 
4 300 309 310 301 
4 301 310 311 302 
4 302 311 312 303 
4 303 312 313 304 
4 304 313 314 305 
4 305 314 21 22 
4 68 69 315 306 
4 306 315 316 307 
4 307 316 317 308 
4 308 317 318 309 
4 309 318 319 310 
4 310 319 320 311 
4 311 320 321 312 
4 312 321 322 313 
4 313 322 323 314 
4 314 323 20 21 
4 69 70 324 315 
4 315 324 325 316 
4 316 325 326 317 
4 317 326 327 318 
4 318 327 328 319 
4 319 328 329 320 
4 320 329 330 321 
4 321 330 331 322 
4 322 331 332 323 
4 323 332 19 20 
4 70 71 333 324 
4 324 333 334 325 
4 325 334 335 326 
4 326 335 336 327 
4 327 336 337 328 
4 328 337 338 329 
4 329 338 339 330 
4 330 339 340 331 
4 331 340 341 332 
4 332 341 18 19 
4 71 7 72 333 
4 333 72 73 334 
4 334 73 74 335 
4 335 74 75 336 
4 336 75 76 337 
4 337 76 77 338 
4 338 77 78 339 
4 339 78 79 340 
4 340 79 80 341 
4 341 80 0 18 

CELL_TYPES 300
9
9
9
9
9
9
9
9
9
9
9
9
9
9
9
9
9
9
9
9
9
9
9
9
9
9
9
9
9
9
9
9
9
9
9
9
9
9
9
9
9
9
9
9
9
9
9
9
9
9
9
9
9
9
9
9
9
9
9
9
9
9
9
9
9
9
9
9
9
9
9
9
9
9
9
9
9
9
9
9
9
9
9
9
9
9
9
9
9
9
9
9
9
9
9
9
9
9
9
9
9
9
9
9
9
9
9
9
9
9
9
9
9
9
9
9
9
9
9
9
9
9
9
9
9
9
9
9
9
9
9
9
9
9
9
9
9
9
9
9
9
9
9
9
9
9
9
9
9
9
9
9
9
9
9
9
9
9
9
9
9
9
9
9
9
9
9
9
9
9
9
9
9
9
9
9
9
9
9
9
9
9
9
9
9
9
9
9
9
9
9
9
9
9
9
9
9
9
9
9
9
9
9
9
9
9
9
9
9
9
9
9
9
9
9
9
9
9
9
9
9
9
9
9
9
9
9
9
9
9
9
9
9
9
9
9
9
9
9
9
9
9
9
9
9
9
9
9
9
9
9
9
9
9
9
9
9
9
9
9
9
9
9
9
9
9
9
9
9
9
9
9
9
9
9
9
9
9
9
9
9
9
9
9
9
9
9
9
9
9
9
9
9
9
9
9
9
9
9
9

CELL_DATA 300
SCALARS rho float 1
LOOKUP_TABLE default
1.09471
1.09475
1.09482
1.09492
1.09503
1.09516
1.09528
1.09538
1.09546
1.0955
1.09481
1.09484
1.09488
1.09495
1.09504
1.09513
1.09523
1.09531
1.09538
1.09542
1.09487
1.09489
1.09492
1.09497
1.09504
1.09511
1.09519
1.09527
1.09534
1.09539
1.09491
1.09492
1.09494
1.09497
1.09502
1.09508
1.09516
1.09524
1.09533
1.0954
1.09492
1.09492
1.09493
1.09495
1.09498
1.09504
1.09512
1.09523
1.09536
1.09548
1.09491
1.0949
1.0949
1.09491
1.09492
1.09497
1.09507
1.09522
1.09543
1.09566
1.09488
1.09486
1.09485
1.09483
1.09483
1.09486
1.09497
1.09519
1.09554
1.09599
1.09483
1.09481
1.09476
1.09471
1.09467
1.09468
1.0948
1.09509
1.09567
1.09662
1.09478
1.09473
1.09465
1.09455
1.09444
1.09439
1.09446
1.09482
1.09576
1.09781
1.09473
1.09466
1.09453
1.09434
1.09412
1.09391
1.09381
1.09413
1.09558
1.10011
1.0947
1.09459
1.09436
1.09401
1.0935
1.09278
1.09173
1.09008
1.08712
1.08099
1.09476
1.09464
1.09438
1.09398
1.0934
1.09257
1.09142
1.0898
1.08743
1.08388
1.09494
1.09481
1.09455
1.09413
1.09352
1.09268
1.09152
1.08994
1.08783
1.08507
1.09524
1.09512
1.09487
1.09447
1.09388
1.09307
1.09196
1.09047
1.08851
1.08599
1.09568
1.09557
1.09534
1.09499
1.09447
1.09374
1.09276
1.09142
1.08963
1.0873
1.09622
1.09613
1.09596
1.09568
1.09527
1.09469
1.0939
1.09282
1.09135
1.08937
1.09684
1.09678
1.09667
1.09649
1.09624
1.09588
1.09539
1.09473
1.09381
1.09256
1.09749
1.09747
1.09744
1.09739
1.09733
1.09727
1.09721
1.09718
1.09722
1.09739
1.09813
1.09815
1.0982
1.0983
1.09847
1.09877
1.09929
1.10021
1.10187
1.10488
1.09872
1.09877
1.0989
1.09913
1.09953
1.10022
1.10145
1.10373
1.10815
1.11697
1.09921
1.09927
1.09941
1.09963
1.09996
1.10043
1.10105
1.10172
1.10199
1.10022
1.09961
1.09967
1.09979
1.09999
1.10026
1.1006
1.101
1.10136
1.10147
1.10088
1.09992
1.09997
1.10008
1.10024
1.10045
1.1007
1.10096
1.10118
1.10126
1.10109
1.10015
1.10019
1.10028
1.10041
1.10057
1.10076
1.10094
1.10109
1.10116
1.10113
1.10032
1.10036
1.10043
1.10053
1.10066
1.10079
1.10093
1.10104
1.1011
1.10111
1.10044
1.10047
1.10053
1.10061
1.10071
1.10082
1.10092
1.10101
1.10106
1.10108
1.10053
1.10055
1.1006
1.10067
1.10075
1.10084
1.10092
1.10099
1.10103
1.10105
1.10058
1.1006
1.10065
1.1007
1.10077
1.10085
1.10092
1.10098
1.10102
1.10104
1.10062
1.10064
1.10068
1.10073
1.1008
1.10087
1.10094
1.10099
1.10103
1.10105
1.10576
1.10578
1.10581
1.10586
1.10592
1.10599
1.10605
1.1061
1.10614
1.10616

SCALARS e float 1
LOOKUP_TABLE default
345333
345344
345365
345396
345434
345475
345517
345554
345583
345599
345377
345383
345395
345413
345436
345463
345493
345523
345549
345565
345407
345409
345414
345421
345433
345451
345474
345503
345531
345551
345428
345426
345424
345423
345426
345436
345456
345487
345525
345557
345442
345437
345428
345418
345412
345416
345435
345474
345530
345586
345451
345442
345426
345406
345389
345385
345404
345457
345546
345652
345458
345444
345419
345387
345355
345338
345354
345425
345570
345778
345464
345445
345408
345358
345306
345267
345270
345358
345590
346013
345472
345445
345394
345321
345236
345158
345126
345216
345573
346453
345485
345450
345380
345276
345144
344997
344881
344915
345424
347293
345504
345455
345354
345191
344950
344605
344098
343307
341920
339143
345559
345511
345409
345243
344998
344645
344145
343432
342395
340849
345648
345603
345508
345354
345124
344795
344331
343686
342800
341618
345771
345732
345650
345516
345316
345027
344617
344042
343246
342185
345923
345892
345828
345722
345563
345330
344994
344510
343818
342854
346096
346076
346032
345961
345854
345694
345459
345106
344575
343784
346280
346271
346252
346221
346175
346107
346004
345841
345572
345121
346463
346466
346473
346486
346511
346552
346619
346721
346869
347062
346633
346648
346682
346742
346843
347010
347288
347757
348569
349986
346783
346808
346864
346965
347136
347431
347952
348917
350805
354630
346903
346927
346977
347060
347184
347358
347577
347796
347814
346933
346992
347013
347056
347123
347216
347331
347456
347559
347555
347268
347058
347075
347110
347163
347230
347309
347389
347448
347455
347367
347105
347120
347148
347188
347239
347295
347350
347391
347405
347382
347139
347150
347173
347205
347244
347287
347327
347359
347375
347373
347161
347171
347190
347216
347248
347282
347314
347340
347356
347360
347175
347183
347200
347223
347250
347279
347306
347329
347344
347351
347181
347189
347205
347226
347251
347278
347303
347324
347339
347346
347186
347194
347209
347230
347255
347282
347307
347328
347343
347351
349278
349286
349300
349321
349345
349370
349395
349415
349430
349438

VECTORS velocity float
86.9695 -0.0423806 0
86.8286 -0.122931 0
86.5613 -0.191106 0
86.1957 -0.239617 0
85.7707 -0.262912 0
85.3323 -0.258265 0
84.9268 -0.226797 0
84.5946 -0.173791 0
84.3635 -0.107492 0
84.2468 -0.0360854 0
87.0624 -0.0638757 0
86.9123 -0.185766 0
86.6273 -0.290243 0
86.2365 -0.366479 0
85.7817 -0.405461 0
85.3121 -0.401739 0
84.879 -0.35548 0
84.5269 -0.273781 0
84.2855 -0.169581 0
84.166 -0.0568821 0
87.2112 -0.0978758 0
87.0476 -0.285493 0
86.7359 -0.448648 0
86.3067 -0.571194 0
85.8042 -0.638406 0
85.2832 -0.639623 0
84.8025 -0.572042 0
84.4146 -0.444209 0
84.1541 -0.276181 0
84.0298 -0.0926622 0
87.4355 -0.139898 0
87.2534 -0.409459 0
86.9047 -0.647784 0
86.4202 -0.832786 0
85.847 -0.942254 0
85.2463 -0.957221 0
84.688 -0.868044 0
84.2388 -0.681778 0
83.9444 -0.426347 0
83.8121 -0.14322 0
87.7489 -0.187453 0
87.5443 -0.550948 0
87.1491 -0.878902 0
86.593 -1.14384 0
85.9236 -1.3148 0
85.2081 -1.36062 0
84.5311 -1.25822 0
83.9817 -1.00576 0
83.6285 -0.635988 0
83.4835 -0.214873 0
88.1615 -0.238374 0
87.9325 -0.704267 0
87.4855 -1.13524 0
86.8452 -1.50066 0
86.0554 -1.76086 0
85.1857 -1.86855 0
84.3349 -1.77747 0
83.6249 -1.46182 0
83.1679 -0.945975 0
83 -0.326006 0
88.6793 -0.289588 0
88.4282 -0.861019 0
87.9315 -1.40577 0
87.204 -1.89474 0
86.2778 -2.28262 0
85.2146 -2.50455 0
84.1204 -2.48007 0
83.1543 -2.13392 0
82.5042 -1.44568 0
82.2825 -0.52629 0
89.3015 -0.336186 0
89.0364 -1.00709 0
88.5039 -1.66946 0
87.7032 -2.30351 0
86.644 -2.8668 0
85.3622 -3.28325 0
83.9478 -3.43413 0
82.5809 -3.1635 0
81.553 -2.32953 0
81.1687 -0.962054 0
90.0159 -0.370889 0
89.7519 -1.1206 0
89.2129 -1.89031 0
88.3788 -2.67996 0
87.2267 -3.4658 0
85.7444 -4.18229 0
83.9596 -4.69455 0
82.0034 -4.76175 0
80.2252 -4.0198 0
79.2879 -2.11266 0
90.7936 -0.384196 0
90.5526 -1.17189 0
90.0521 -2.01512 0
89.2557 -2.94366 0
88.1075 -3.97318 0
86.5333 -5.08985 0
84.4458 -6.21811 0
81.776 -7.14895 0
78.6023 -7.37512 0
75.6969 -5.71515 0
91.5879 -0.365637 0
91.3984 -1.127 0
91.0003 -1.97749 0
90.3553 -2.97958 0
89.4027 -4.20228 0
88.0555 -5.72698 0
86.1957 -7.66139 0
83.6714 -10.1734 0
80.3171 -13.5663 0
76.1346 -18.4613 0
92.334 -0.297877 0
92.2204 -0.926834 0
91.9802 -1.6563 0
91.5876 -2.56062 0
91.0039 -3.72678 0
90.1801 -5.26094 0
89.066 -7.29721 0
87.6345 -10.0069 0
85.9317 -13.5896 0
84.1409 -18.1667 0
92.9115 -0.187658 0
92.8719 -0.592477 0
92.7863 -1.0874 0
92.6414 -1.74005 0
92.4173 -2.62973 0
92.0886 -3.85059 0
91.6292 -5.51121 0
91.0226 -7.72414 0
90.2794 -10.5668 0
89.4414 -13.9823 0
93.2251 -0.049729 0
93.2448 -0.170141 0
93.2831 -0.354654 0
93.3369 -0.652202 0
93.4001 -1.12108 0
93.4613 -1.83093 0
93.4998 -2.86084 0
93.4821 -4.2881 0
93.3571 -6.15655 0
93.0585 -8.41494 0
93.218 0.0972248 0
93.2743 0.28203 0
93.3897 0.437285 0
93.5689 0.539131 0
93.8167 0.556959 0
94.1334 0.450603 0
94.5059 0.168706 0
94.8921 -0.348675 0
95.2008 -1.15547 0
95.2818 -2.25724 0
92.8823 0.234346 0
92.9491 0.705451 0
93.0875 1.18365 0
93.3074 1.6725 0
93.6217 2.17296 0
94.0428 2.68011 0
94.5725 3.17728 0
95.1806 3.62668 0
95.7665 3.96038 0
96.111 4.09481 0
92.2584 0.345645 0
92.3102 1.05015 0
92.4185 1.79421 0
92.5934 2.60709 0
92.8504 3.52202 0
93.2098 4.57527 0
93.6908 5.79994 0
94.2933 7.2083 0
94.948 8.75187 0
95.4094 10.2682 0
91.4249 0.41992 0
91.441 1.28045 0
91.4745 2.20271 0
91.5294 3.2349 0
91.6129 4.43729 0
91.7388 5.887 0
91.9298 7.67977 0
92.2137 9.9179 0
92.5923 12.6527 0
92.902 15.727 0
90.4819 0.452036 0
90.4501 1.37902 0
90.3814 2.37403 0
90.2658 3.49156 0
90.0885 4.80344 0
89.8308 6.41029 0
89.476 8.45773 0
89.0229 11.1531 0
88.5132 14.7515 0
88.0166 19.3987 0
89.5315 0.44328 0
89.4513 1.3485 0
89.278 2.30865 0
88.984 3.36662 0
88.5211 4.57807 0
87.8112 6.02168 0
86.7305 7.81876 0
85.0947 10.1731 0
82.6882 13.459 0
79.5649 18.5196 0
88.6618 0.401063 0
88.5514 1.21151 0
88.316 2.04559 0
87.9248 2.91514 0
87.3266 3.82315 0
86.4449 4.75077 0
85.1745 5.62771 0
83.3964 6.26537 0
81.0659 6.21414 0
78.5668 4.50946 0
87.9069 0.338276 0
87.79 1.01396 0
87.5459 1.68472 0
87.1547 2.33886 0
86.5885 2.94922 0
85.8177 3.46042 0
84.8281 3.76949 0
83.6614 3.70172 0
82.4935 3.00412 0
81.7132 1.45104 0
87.2912 0.271266 0
87.184 0.807106 0
86.9649 1.32069 0
86.6255 1.78961 0
86.1586 2.17923 0
85.5658 2.4368 0
84.873 2.48721 0
84.1524 2.23801 0
83.5438 1.61048 0
83.2242 0.628484 0
86.8098 0.209906 0
86.7206 0.620554 0
86.5414 1.00226 0
86.2719 1.33096 0
85.916 1.57594 0
85.4885 1.69879 0
85.0221 1.65619 0
84.576 1.41056 0
84.2325 0.953653 0
84.0648 0.341458 0
86.4441 0.158344 0
86.375 0.46571 0
86.2379 0.744397 0
86.0364 0.973139 0
85.7788 1.12829 0
85.4816 1.18495 0
85.1726 1.12089 0
84.8917 0.924627 0
84.6845 0.607219 0
84.5831 0.211327 0
86.1721 0.117028 0
86.1215 0.342845 0
86.0221 0.543751 0
85.8785 0.702691 0
85.6993 0.802663 0
85.4983 0.828277 0
85.2959 0.768875 0
85.1172 0.623181 0
84.9876 0.404097 0
84.9228 0.139505 0
85.9734 0.0845161 0
85.9382 0.2469 0
85.8696 0.389418 0
85.7717 0.499222 0
85.6515 0.564537 0
85.5195 0.576001 0
85.3891 0.528693 0
85.2759 0.424508 0
85.1941 0.273795 0
85.1526 0.0943398 0
85.832 0.058641 0
85.8087 0.170985 0
85.7634 0.268685 0
85.6995 0.342637 0
85.6221 0.384985 0
85.5381 0.39009 0
85.4562 0.355733 0
85.3858 0.284238 0
85.3349 0.182909 0
85.3088 0.063005 0
85.7329 0.0370904 0
85.718 0.108022 0
85.6892 0.169363 0
85.6489 0.215295 0
85.6005 0.24099 0
85.5485 0.24322 0
85.4982 0.221012 0
85.4552 0.176153 0
85.4242 0.113243 0
85.4081 0.0390089 0
83.9226 0.0177589 0
83.9134 0.0516907 0
83.8958 0.0809527 0
83.8713 0.102745 0
83.8421 0.11479 0
83.8111 0.115624 0
83.7812 0.104881 0
83.7558 0.0834909 0
83.7373 0.0536462 0
83.7277 0.0184792 0

