# vtk DataFile Version 2.0
Unstructured Grid Example
ASCII
DATASET UNSTRUCTURED_GRID

POINTS 342 float
0 0 0 
1 0 0 
2 0 0 
3 0 0 
3 1 0 
2 1 0 
1 1 0 
0 1 0 
1.5 -1.3 0 
1.09673 0.0331807 0 
1.19563 0.0591753 0 
1.29617 0.0778436 0 
1.39781 0.089085 0 
1.5 0.0928388 0 
1.60219 0.089085 0 
1.70383 0.0778436 0 
1.80437 0.0591753 0 
1.90327 0.0331807 0 
0.1 0 0 
0.2 0 0 
0.3 0 0 
0.4 0 0 
0.5 0 0 
0.6 0 0 
0.7 0 0 
0.8 0 0 
0.9 0 0 
2.1 0 0 
2.2 0 0 
2.3 0 0 
2.4 0 0 
2.5 0 0 
2.6 0 0 
2.7 0 0 
2.8 0 0 
2.9 0 0 
3 0.1 0 
3 0.2 0 
3 0.3 0 
3 0.4 0 
3 0.5 0 
3 0.6 0 
3 0.7 0 
3 0.8 0 
3 0.9 0 
2.9 1 0 
2.8 1 0 
2.7 1 0 
2.6 1 0 
2.5 1 0 
2.4 1 0 
2.3 1 0 
2.2 1 0 
2.1 1 0 
1.9 1 0 
1.8 1 0 
1.7 1 0 
1.6 1 0 
1.5 1 0 
1.4 1 0 
1.3 1 0 
1.2 1 0 
1.1 1 0 
0.9 1 0 
0.8 1 0 
0.7 1 0 
0.6 1 0 
0.5 1 0 
0.4 1 0 
0.3 1 0 
0.2 1 0 
0.1 1 0 
0 0.9 0 
0 0.8 0 
0 0.7 0 
0 0.6 0 
0 0.5 0 
0 0.4 0 
0 0.3 0 
0 0.2 0 
0 0.1 0 
1 0.1 0 
1 0.2 0 
1 0.3 0 
1 0.4 0 
1 0.5 0 
1 0.6 0 
1 0.7 0 
1 0.8 0 
1 0.9 0 
2 0.1 0 
2 0.2 0 
2 0.3 0 
2 0.4 0 
2 0.5 0 
2 0.6 0 
2 0.7 0 
2 0.8 0 
2 0.9 0 
2.9 0.9 0 
2.9 0.8 0 
2.9 0.7 0 
2.9 0.6 0 
2.9 0.5 0 
2.9 0.4 0 
2.9 0.3 0 
2.9 0.2 0 
2.9 0.1 0 
2.8 0.9 0 
2.8 0.8 0 
2.8 0.7 0 
2.8 0.6 0 
2.8 0.5 0 
2.8 0.4 0 
2.8 0.3 0 
2.8 0.2 0 
2.8 0.1 0 
2.7 0.9 0 
2.7 0.8 0 
2.7 0.7 0 
2.7 0.6 0 
2.7 0.5 0 
2.7 0.4 0 
2.7 0.3 0 
2.7 0.2 0 
2.7 0.1 0 
2.6 0.9 0 
2.6 0.8 0 
2.6 0.7 0 
2.6 0.6 0 
2.6 0.5 0 
2.6 0.4 0 
2.6 0.3 0 
2.6 0.2 0 
2.6 0.1 0 
2.5 0.9 0 
2.5 0.8 0 
2.5 0.7 0 
2.5 0.6 0 
2.5 0.5 0 
2.5 0.4 0 
2.5 0.3 0 
2.5 0.2 0 
2.5 0.1 0 
2.4 0.9 0 
2.4 0.8 0 
2.4 0.7 0 
2.4 0.6 0 
2.4 0.5 0 
2.4 0.4 0 
2.4 0.3 0 
2.4 0.2 0 
2.4 0.1 0 
2.3 0.9 0 
2.3 0.8 0 
2.3 0.7 0 
2.3 0.6 0 
2.3 0.5 0 
2.3 0.4 0 
2.3 0.3 0 
2.3 0.2 0 
2.3 0.1 0 
2.2 0.9 0 
2.2 0.8 0 
2.2 0.7 0 
2.2 0.6 0 
2.2 0.5 0 
2.2 0.4 0 
2.2 0.3 0 
2.2 0.2 0 
2.2 0.1 0 
2.1 0.9 0 
2.1 0.8 0 
2.1 0.7 0 
2.1 0.6 0 
2.1 0.5 0 
2.1 0.4 0 
2.1 0.3 0 
2.1 0.2 0 
2.1 0.1 0 
1.9002 0.902854 0 
1.90039 0.805676 0 
1.90057 0.708488 0 
1.90076 0.611297 0 
1.90094 0.514105 0 
1.90113 0.416913 0 
1.90131 0.319725 0 
1.90153 0.222645 0 
1.90195 0.12634 0 
1.80029 0.905259 0 
1.80057 0.810467 0 
1.80084 0.715656 0 
1.80111 0.620839 0 
1.80138 0.526021 0 
1.80165 0.431202 0 
1.80193 0.336405 0 
1.80226 0.241842 0 
1.80288 0.148554 0 
1.70026 0.907047 0 
1.70052 0.814034 0 
1.70076 0.720995 0 
1.70101 0.627949 0 
1.70126 0.534901 0 
1.70151 0.441854 0 
1.70176 0.348845 0 
1.70208 0.256149 0 
1.70263 0.164915 0 
1.60015 0.90814 0 
1.60029 0.816214 0 
1.60042 0.724261 0 
1.60056 0.632299 0 
1.60069 0.540334 0 
1.60083 0.448373 0 
1.60097 0.35646 0 
1.60116 0.264894 0 
1.6015 0.17486 0 
1.49998 0.908503 0 
1.49996 0.816939 0 
1.49994 0.725346 0 
1.49991 0.633744 0 
1.49989 0.542139 0 
1.49987 0.450539 0 
1.49985 0.358992 0 
1.49986 0.267805 0 
1.49991 0.178176 0 
1.39982 0.908126 0 
1.39964 0.816183 0 
1.39946 0.724212 0 
1.39928 0.632231 0 
1.3991 0.540247 0 
1.39893 0.448269 0 
1.39875 0.356346 0 
1.39857 0.264787 0 
1.39833 0.174791 0 
1.29971 0.907005 0 
1.29943 0.813943 0 
1.29915 0.720852 0 
1.29887 0.62775 0 
1.2986 0.534646 0 
1.29832 0.441548 0 
1.29804 0.348506 0 
1.29774 0.255828 0 
1.29724 0.164706 0 
1.19971 0.905163 0 
1.19943 0.810263 0 
1.19915 0.715337 0 
1.19888 0.620401 0 
1.1986 0.525463 0 
1.19833 0.430531 0 
1.19805 0.335654 0 
1.19772 0.241126 0 
1.19711 0.148088 0 
1.09982 0.902723 0 
1.09965 0.805404 0 
1.09949 0.708068 0 
1.09932 0.610725 0 
1.09916 0.513381 0 
1.099 0.416043 0 
1.09883 0.318749 0 
1.09861 0.221713 0 
1.09814 0.125744 0 
0.9 0.9 0 
0.9 0.8 0 
0.9 0.7 0 
0.9 0.6 0 
0.9 0.5 0 
0.9 0.4 0 
0.9 0.3 0 
0.9 0.2 0 
0.9 0.1 0 
0.8 0.9 0 
0.8 0.8 0 
0.8 0.7 0 
0.8 0.6 0 
0.8 0.5 0 
0.8 0.4 0 
0.8 0.3 0 
0.8 0.2 0 
0.8 0.1 0 
0.7 0.9 0 
0.7 0.8 0 
0.7 0.7 0 
0.7 0.6 0 
0.7 0.5 0 
0.7 0.4 0 
0.7 0.3 0 
0.7 0.2 0 
0.7 0.1 0 
0.6 0.9 0 
0.6 0.8 0 
0.6 0.7 0 
0.6 0.6 0 
0.6 0.5 0 
0.6 0.4 0 
0.6 0.3 0 
0.6 0.2 0 
0.6 0.1 0 
0.5 0.9 0 
0.5 0.8 0 
0.5 0.7 0 
0.5 0.6 0 
0.5 0.5 0 
0.5 0.4 0 
0.5 0.3 0 
0.5 0.2 0 
0.5 0.1 0 
0.4 0.9 0 
0.4 0.8 0 
0.4 0.7 0 
0.4 0.6 0 
0.4 0.5 0 
0.4 0.4 0 
0.4 0.3 0 
0.4 0.2 0 
0.4 0.1 0 
0.3 0.9 0 
0.3 0.8 0 
0.3 0.7 0 
0.3 0.6 0 
0.3 0.5 0 
0.3 0.4 0 
0.3 0.3 0 
0.3 0.2 0 
0.3 0.1 0 
0.2 0.9 0 
0.2 0.8 0 
0.2 0.7 0 
0.2 0.6 0 
0.2 0.5 0 
0.2 0.4 0 
0.2 0.3 0 
0.2 0.2 0 
0.2 0.1 0 
0.1 0.9 0 
0.1 0.8 0 
0.1 0.7 0 
0.1 0.6 0 
0.1 0.5 0 
0.1 0.4 0 
0.1 0.3 0 
0.1 0.2 0 
0.1 0.1 0 

CELLS 300 1500
4 4 45 99 44 
4 44 99 100 43 
4 43 100 101 42 
4 42 101 102 41 
4 41 102 103 40 
4 40 103 104 39 
4 39 104 105 38 
4 38 105 106 37 
4 37 106 107 36 
4 36 107 35 3 
4 45 46 108 99 
4 99 108 109 100 
4 100 109 110 101 
4 101 110 111 102 
4 102 111 112 103 
4 103 112 113 104 
4 104 113 114 105 
4 105 114 115 106 
4 106 115 116 107 
4 107 116 34 35 
4 46 47 117 108 
4 108 117 118 109 
4 109 118 119 110 
4 110 119 120 111 
4 111 120 121 112 
4 112 121 122 113 
4 113 122 123 114 
4 114 123 124 115 
4 115 124 125 116 
4 116 125 33 34 
4 47 48 126 117 
4 117 126 127 118 
4 118 127 128 119 
4 119 128 129 120 
4 120 129 130 121 
4 121 130 131 122 
4 122 131 132 123 
4 123 132 133 124 
4 124 133 134 125 
4 125 134 32 33 
4 48 49 135 126 
4 126 135 136 127 
4 127 136 137 128 
4 128 137 138 129 
4 129 138 139 130 
4 130 139 140 131 
4 131 140 141 132 
4 132 141 142 133 
4 133 142 143 134 
4 134 143 31 32 
4 49 50 144 135 
4 135 144 145 136 
4 136 145 146 137 
4 137 146 147 138 
4 138 147 148 139 
4 139 148 149 140 
4 140 149 150 141 
4 141 150 151 142 
4 142 151 152 143 
4 143 152 30 31 
4 50 51 153 144 
4 144 153 154 145 
4 145 154 155 146 
4 146 155 156 147 
4 147 156 157 148 
4 148 157 158 149 
4 149 158 159 150 
4 150 159 160 151 
4 151 160 161 152 
4 152 161 29 30 
4 51 52 162 153 
4 153 162 163 154 
4 154 163 164 155 
4 155 164 165 156 
4 156 165 166 157 
4 157 166 167 158 
4 158 167 168 159 
4 159 168 169 160 
4 160 169 170 161 
4 161 170 28 29 
4 52 53 171 162 
4 162 171 172 163 
4 163 172 173 164 
4 164 173 174 165 
4 165 174 175 166 
4 166 175 176 167 
4 167 176 177 168 
4 168 177 178 169 
4 169 178 179 170 
4 170 179 27 28 
4 53 5 98 171 
4 171 98 97 172 
4 172 97 96 173 
4 173 96 95 174 
4 174 95 94 175 
4 175 94 93 176 
4 176 93 92 177 
4 177 92 91 178 
4 178 91 90 179 
4 179 90 2 27 
4 5 54 180 98 
4 98 180 181 97 
4 97 181 182 96 
4 96 182 183 95 
4 95 183 184 94 
4 94 184 185 93 
4 93 185 186 92 
4 92 186 187 91 
4 91 187 188 90 
4 90 188 17 2 
4 54 55 189 180 
4 180 189 190 181 
4 181 190 191 182 
4 182 191 192 183 
4 183 192 193 184 
4 184 193 194 185 
4 185 194 195 186 
4 186 195 196 187 
4 187 196 197 188 
4 188 197 16 17 
4 55 56 198 189 
4 189 198 199 190 
4 190 199 200 191 
4 191 200 201 192 
4 192 201 202 193 
4 193 202 203 194 
4 194 203 204 195 
4 195 204 205 196 
4 196 205 206 197 
4 197 206 15 16 
4 56 57 207 198 
4 198 207 208 199 
4 199 208 209 200 
4 200 209 210 201 
4 201 210 211 202 
4 202 211 212 203 
4 203 212 213 204 
4 204 213 214 205 
4 205 214 215 206 
4 206 215 14 15 
4 57 58 216 207 
4 207 216 217 208 
4 208 217 218 209 
4 209 218 219 210 
4 210 219 220 211 
4 211 220 221 212 
4 212 221 222 213 
4 213 222 223 214 
4 214 223 224 215 
4 215 224 13 14 
4 58 59 225 216 
4 216 225 226 217 
4 217 226 227 218 
4 218 227 228 219 
4 219 228 229 220 
4 220 229 230 221 
4 221 230 231 222 
4 222 231 232 223 
4 223 232 233 224 
4 224 233 12 13 
4 59 60 234 225 
4 225 234 235 226 
4 226 235 236 227 
4 227 236 237 228 
4 228 237 238 229 
4 229 238 239 230 
4 230 239 240 231 
4 231 240 241 232 
4 232 241 242 233 
4 233 242 11 12 
4 60 61 243 234 
4 234 243 244 235 
4 235 244 245 236 
4 236 245 246 237 
4 237 246 247 238 
4 238 247 248 239 
4 239 248 249 240 
4 240 249 250 241 
4 241 250 251 242 
4 242 251 10 11 
4 61 62 252 243 
4 243 252 253 244 
4 244 253 254 245 
4 245 254 255 246 
4 246 255 256 247 
4 247 256 257 248 
4 248 257 258 249 
4 249 258 259 250 
4 250 259 260 251 
4 251 260 9 10 
4 62 6 89 252 
4 252 89 88 253 
4 253 88 87 254 
4 254 87 86 255 
4 255 86 85 256 
4 256 85 84 257 
4 257 84 83 258 
4 258 83 82 259 
4 259 82 81 260 
4 260 81 1 9 
4 6 63 261 89 
4 89 261 262 88 
4 88 262 263 87 
4 87 263 264 86 
4 86 264 265 85 
4 85 265 266 84 
4 84 266 267 83 
4 83 267 268 82 
4 82 268 269 81 
4 81 269 26 1 
4 63 64 270 261 
4 261 270 271 262 
4 262 271 272 263 
4 263 272 273 264 
4 264 273 274 265 
4 265 274 275 266 
4 266 275 276 267 
4 267 276 277 268 
4 268 277 278 269 
4 269 278 25 26 
4 64 65 279 270 
4 270 279 280 271 
4 271 280 281 272 
4 272 281 282 273 
4 273 282 283 274 
4 274 283 284 275 
4 275 284 285 276 
4 276 285 286 277 
4 277 286 287 278 
4 278 287 24 25 
4 65 66 288 279 
4 279 288 289 280 
4 280 289 290 281 
4 281 290 291 282 
4 282 291 292 283 
4 283 292 293 284 
4 284 293 294 285 
4 285 294 295 286 
4 286 295 296 287 
4 287 296 23 24 
4 66 67 297 288 
4 288 297 298 289 
4 289 298 299 290 
4 290 299 300 291 
4 291 300 301 292 
4 292 301 302 293 
4 293 302 303 294 
4 294 303 304 295 
4 295 304 305 296 
4 296 305 22 23 
4 67 68 306 297 
4 297 306 307 298 
4 298 307 308 299 
4 299 308 309 300 
4 300 309 310 301 
4 301 310 311 302 
4 302 311 312 303 
4 303 312 313 304 
4 304 313 314 305 
4 305 314 21 22 
4 68 69 315 306 
4 306 315 316 307 
4 307 316 317 308 
4 308 317 318 309 
4 309 318 319 310 
4 310 319 320 311 
4 311 320 321 312 
4 312 321 322 313 
4 313 322 323 314 
4 314 323 20 21 
4 69 70 324 315 
4 315 324 325 316 
4 316 325 326 317 
4 317 326 327 318 
4 318 327 328 319 
4 319 328 329 320 
4 320 329 330 321 
4 321 330 331 322 
4 322 331 332 323 
4 323 332 19 20 
4 70 71 333 324 
4 324 333 334 325 
4 325 334 335 326 
4 326 335 336 327 
4 327 336 337 328 
4 328 337 338 329 
4 329 338 339 330 
4 330 339 340 331 
4 331 340 341 332 
4 332 341 18 19 
4 71 7 72 333 
4 333 72 73 334 
4 334 73 74 335 
4 335 74 75 336 
4 336 75 76 337 
4 337 76 77 338 
4 338 77 78 339 
4 339 78 79 340 
4 340 79 80 341 
4 341 80 0 18 

CELL_TYPES 300
9
9
9
9
9
9
9
9
9
9
9
9
9
9
9
9
9
9
9
9
9
9
9
9
9
9
9
9
9
9
9
9
9
9
9
9
9
9
9
9
9
9
9
9
9
9
9
9
9
9
9
9
9
9
9
9
9
9
9
9
9
9
9
9
9
9
9
9
9
9
9
9
9
9
9
9
9
9
9
9
9
9
9
9
9
9
9
9
9
9
9
9
9
9
9
9
9
9
9
9
9
9
9
9
9
9
9
9
9
9
9
9
9
9
9
9
9
9
9
9
9
9
9
9
9
9
9
9
9
9
9
9
9
9
9
9
9
9
9
9
9
9
9
9
9
9
9
9
9
9
9
9
9
9
9
9
9
9
9
9
9
9
9
9
9
9
9
9
9
9
9
9
9
9
9
9
9
9
9
9
9
9
9
9
9
9
9
9
9
9
9
9
9
9
9
9
9
9
9
9
9
9
9
9
9
9
9
9
9
9
9
9
9
9
9
9
9
9
9
9
9
9
9
9
9
9
9
9
9
9
9
9
9
9
9
9
9
9
9
9
9
9
9
9
9
9
9
9
9
9
9
9
9
9
9
9
9
9
9
9
9
9
9
9
9
9
9
9
9
9
9
9
9
9
9
9
9
9
9
9
9
9
9
9
9
9
9
9
9
9
9
9
9
9
9
9
9
9
9
9

CELL_DATA 300
SCALARS rho float 1
LOOKUP_TABLE default
1.06065
1.06065
1.06065
1.06065
1.06065
1.06065
1.06065
1.06065
1.06065
1.06065
1.06065
1.06065
1.06065
1.06065
1.06065
1.06065
1.06065
1.06065
1.06065
1.06065
1.06065
1.06065
1.06065
1.06065
1.06065
1.06065
1.06065
1.06065
1.06065
1.06065
1.06065
1.06065
1.06065
1.06065
1.06065
1.06065
1.06065
1.06065
1.06065
1.06065
1.06065
1.06065
1.06065
1.06065
1.06065
1.06065
1.06065
1.06065
1.06065
1.06065
1.06065
1.06065
1.06065
1.06065
1.06065
1.06065
1.06065
1.06065
1.06065
1.06065
1.06065
1.06065
1.06065
1.06065
1.06065
1.06065
1.06065
1.06065
1.06065
1.06065
1.06065
1.06065
1.06065
1.06065
1.06065
1.06065
1.06065
1.06065
1.06065
1.06065
1.06065
1.06065
1.06065
1.06065
1.06065
1.06065
1.06065
1.06065
1.06065
1.06065
1.06065
1.06065
1.06065
1.06065
1.06065
1.06065
1.06065
1.06065
1.06065
1.06065
1.06065
1.06065
1.06065
1.06065
1.06065
1.06065
1.06065
1.06065
1.06065
1.06065
1.06065
1.06065
1.06065
1.06065
1.06065
1.06065
1.06065
1.06065
1.06065
1.06065
1.06065
1.06065
1.06065
1.06065
1.06065
1.06065
1.06065
1.06065
1.06065
1.06065
1.06065
1.06065
1.06065
1.06065
1.06065
1.06065
1.06065
1.06065
1.06065
1.06065
1.06065
1.06065
1.06065
1.06065
1.06065
1.06065
1.06065
1.06065
1.06065
1.06065
1.06065
1.06065
1.06065
1.06065
1.06065
1.06065
1.06065
1.06065
1.06065
1.06065
1.06065
1.06065
1.06065
1.06065
1.06065
1.06065
1.06065
1.06065
1.06065
1.06065
1.06065
1.06065
1.06065
1.06065
1.06065
1.06065
1.06065
1.06065
1.06065
1.06065
1.06065
1.06065
1.06065
1.06065
1.06065
1.06065
1.06065
1.06065
1.06065
1.06065
1.06065
1.06065
1.06065
1.06065
1.06065
1.06065
1.06065
1.06065
1.06065
1.06065
1.06065
1.06065
1.06065
1.06065
1.06065
1.06065
1.06065
1.06065
1.06065
1.06065
1.06065
1.06065
1.06065
1.06065
1.06065
1.06065
1.06065
1.06065
1.06065
1.06065
1.06065
1.06065
1.06065
1.06065
1.06065
1.06065
1.06065
1.06065
1.06065
1.06065
1.06065
1.06065
1.06065
1.06065
1.06065
1.06065
1.06065
1.06065
1.06065
1.06065
1.06065
1.06065
1.06065
1.06065
1.06065
1.06065
1.06065
1.06065
1.06065
1.06065
1.06065
1.06065
1.06065
1.06065
1.06065
1.06065
1.06065
1.06065
1.06065
1.06065
1.06065
1.06065
1.06065
1.06065
1.06065
1.06065
1.06065
1.06065
1.06065
1.06065
1.06065
1.06065
1.06065
1.06065
1.06065
1.06065
1.06065
1.06065
1.06065
1.06065
1.06065
1.06065
1.06065
1.06065
1.06065
1.06065
1.06065
1.06065
1.06065
1.06065
1.06065
1.06065
1.06065
1.06065
1.06065
1.06065
1.06065
1.06065
1.06065
1.06065

SCALARS e float 1
LOOKUP_TABLE default
231561
231561
231561
231561
231561
231561
231561
231561
231561
231561
231561
231561
231561
231561
231561
231561
231561
231561
231561
231561
231561
231561
231561
231561
231561
231561
231561
231561
231561
231561
231561
231561
231561
231561
231561
231561
231561
231561
231561
231561
231561
231561
231561
231561
231561
231561
231561
231561
231561
231561
231561
231561
231561
231561
231561
231561
231561
231561
231561
231561
231561
231561
231561
231561
231561
231561
231561
231561
231561
231561
231561
231561
231561
231561
231561
231561
231561
231561
231561
231561
231561
231561
231561
231561
231561
231561
231561
231561
231561
231561
231561
231561
231561
231561
231561
231561
231561
231561
231561
231561
231561
231561
231561
231561
231561
231561
231561
231561
231561
231561
231561
231561
231561
231561
231561
231561
231561
231561
231561
231561
231561
231561
231561
231561
231561
231561
231561
231561
231561
231561
231561
231561
231561
231561
231561
231561
231561
231561
231561
231561
231561
231561
231561
231561
231561
231561
231561
231561
231561
231561
231561
231561
231561
231561
231561
231561
231561
231561
231561
231561
231561
231561
231561
231561
231561
231561
231561
231561
231561
231561
231561
231561
231561
231561
231561
231561
231561
231561
231561
231561
231561
231561
231561
231561
231561
231561
231561
231561
231561
231561
231561
231561
231561
231561
231561
231561
231561
231561
231561
231561
231561
231561
231561
231561
231561
231561
231561
231561
231561
231561
231561
231561
231561
231561
231561
231561
231561
231561
231561
231561
231561
231561
231561
231561
231561
231561
231561
231561
231561
231561
231561
231561
231561
231561
231561
231561
231561
231561
231561
231561
231561
231561
231561
231561
231561
231561
231561
231561
231561
231561
231561
231561
231561
231561
231561
231561
231561
231561
231561
231561
231561
231561
231561
231561
231561
231561
231561
231561
231561
231561
231561
231561
231561
231561
231561
231561
231561
231561
231561
231561
231561
231561
231561
231561
231561
231561
231561
231561
231561
231561
231561
231561
231561
231561
231561
231561
231561
231561
231561
231561

SCALARS p float 1
LOOKUP_TABLE default
6.95037e-310
4.66755e-310
4.66755e-310
4.66755e-310
4.66755e-310
4.66755e-310
4.66755e-310
4.66755e-310
4.66755e-310
4.66755e-310
4.66755e-310
4.66755e-310
4.66755e-310
4.66755e-310
4.66755e-310
4.66755e-310
4.66755e-310
4.66755e-310
4.66755e-310
4.66755e-310
4.66755e-310
4.66755e-310
4.66755e-310
4.66755e-310
4.66755e-310
4.66755e-310
4.66755e-310
4.66755e-310
4.66755e-310
4.66755e-310
4.66755e-310
4.66755e-310
4.66755e-310
4.66755e-310
4.66755e-310
4.66755e-310
4.66755e-310
4.66755e-310
4.66755e-310
4.66755e-310
4.66755e-310
4.66755e-310
4.66755e-310
4.66755e-310
4.66755e-310
4.66755e-310
4.66755e-310
4.66755e-310
4.66755e-310
4.66755e-310
4.66755e-310
4.66755e-310
4.66755e-310
4.66755e-310
4.66755e-310
4.66755e-310
4.66755e-310
4.66755e-310
4.66755e-310
4.66755e-310
4.66755e-310
4.66755e-310
4.66755e-310
4.66755e-310
4.66755e-310
4.66755e-310
4.66755e-310
4.66755e-310
4.66755e-310
4.66755e-310
4.66755e-310
4.66755e-310
4.66755e-310
4.66755e-310
4.66755e-310
4.66755e-310
4.66755e-310
4.66755e-310
4.66755e-310
4.66755e-310
4.66755e-310
4.66755e-310
4.66755e-310
4.66755e-310
4.66755e-310
4.66755e-310
4.66755e-310
4.66755e-310
4.66755e-310
4.66755e-310
4.66755e-310
4.66755e-310
4.66755e-310
4.66755e-310
4.66755e-310
4.66755e-310
4.66755e-310
4.66755e-310
4.66755e-310
4.66755e-310
4.66755e-310
4.66755e-310
4.66755e-310
4.66755e-310
4.66755e-310
4.66755e-310
4.66755e-310
4.66755e-310
4.66755e-310
4.66755e-310
4.66755e-310
4.66755e-310
4.66755e-310
4.66755e-310
4.66755e-310
4.66755e-310
4.66755e-310
4.66755e-310
4.66755e-310
4.66755e-310
4.66755e-310
4.66755e-310
4.66755e-310
4.66755e-310
4.66755e-310
4.66755e-310
4.66755e-310
4.66755e-310
4.66755e-310
4.66755e-310
4.66755e-310
4.66755e-310
4.66755e-310
4.66755e-310
4.66755e-310
4.66755e-310
4.66755e-310
4.66755e-310
4.66755e-310
4.66755e-310
4.66755e-310
4.66755e-310
4.66755e-310
4.66755e-310
4.66755e-310
4.66755e-310
4.66755e-310
4.66755e-310
4.66755e-310
4.66755e-310
4.66755e-310
4.66755e-310
4.66755e-310
4.66755e-310
4.66755e-310
4.66755e-310
4.66755e-310
4.66755e-310
4.66755e-310
4.66755e-310
4.66755e-310
4.66755e-310
4.66755e-310
4.66755e-310
4.66755e-310
4.66755e-310
4.66755e-310
4.66755e-310
4.66755e-310
4.66755e-310
4.66755e-310
4.66755e-310
4.66755e-310
4.66755e-310
4.66755e-310
4.66755e-310
4.66755e-310
4.66755e-310
4.66755e-310
4.66755e-310
4.66755e-310
4.66755e-310
4.66755e-310
4.66755e-310
4.66755e-310
4.66755e-310
4.66755e-310
4.66755e-310
4.66755e-310
4.66755e-310
4.66755e-310
4.66755e-310
4.66755e-310
4.66755e-310
4.66755e-310
4.66755e-310
4.66755e-310
4.66755e-310
4.66755e-310
4.66755e-310
4.66755e-310
4.66755e-310
4.66755e-310
4.66755e-310
4.66755e-310
4.66755e-310
4.66755e-310
4.66755e-310
4.66755e-310
4.66755e-310
4.66755e-310
4.66755e-310
4.66755e-310
4.66755e-310
4.66755e-310
4.66755e-310
4.66755e-310
4.66755e-310
4.66755e-310
4.66755e-310
4.66755e-310
4.66755e-310
4.66755e-310
4.66755e-310
4.66755e-310
4.66755e-310
4.66755e-310
4.66755e-310
4.66755e-310
4.66755e-310
4.66755e-310
4.66755e-310
4.66755e-310
4.66755e-310
4.66755e-310
4.66755e-310
4.66755e-310
4.66755e-310
4.66755e-310
4.66755e-310
0
0
0
0
0
0
0
0
0
0
0
0
0
0
0
0
0
0
0
0
0
0
0
0
0
0
0
0
0
0
0
0
0
0
0
0
0
0
0
0
0
0
0
0
0
0
0
0
0
0
0
0
0
0
0
0
0
0
0
0

SCALARS T float 1
LOOKUP_TABLE default
6.95037e-310
6.95037e-310
4.66755e-310
4.66755e-310
0
0
4.66755e-310
6.95037e-310
0
0
4.66755e-310
6.95037e-310
0
0
4.66755e-310
6.95037e-310
0
0
4.66755e-310
6.95037e-310
0
0
4.66755e-310
6.95037e-310
0
0
4.66755e-310
6.95037e-310
0
0
4.66755e-310
6.95037e-310
0
0
4.66755e-310
6.95037e-310
0
0
4.66755e-310
6.95037e-310
0
0
4.66755e-310
6.95037e-310
0
0
4.66755e-310
6.95037e-310
0
0
4.66755e-310
6.95037e-310
0
0
4.66755e-310
6.95037e-310
0
0
4.66755e-310
6.95037e-310
0
0
4.66755e-310
6.95037e-310
0
0
4.66755e-310
6.95037e-310
0
0
4.66755e-310
6.95037e-310
0
0
4.66755e-310
6.95037e-310
0
0
4.66755e-310
6.95037e-310
0
0
4.66755e-310
6.95037e-310
0
0
4.66755e-310
6.95037e-310
0
0
4.66755e-310
6.95037e-310
0
0
4.66755e-310
6.95037e-310
0
0
4.66755e-310
6.95037e-310
0
0
4.66755e-310
6.95037e-310
0
0
4.66755e-310
6.95037e-310
0
0
4.66755e-310
6.95037e-310
0
0
4.66755e-310
6.95037e-310
0
0
4.66755e-310
6.95037e-310
0
0
4.66755e-310
6.95037e-310
0
0
4.66755e-310
6.95037e-310
0
0
4.66755e-310
6.95037e-310
0
0
4.66755e-310
6.95037e-310
0
0
4.66755e-310
6.95037e-310
0
0
4.66755e-310
6.95037e-310
0
0
4.66755e-310
6.95037e-310
0
0
4.66755e-310
6.95037e-310
0
0
4.66755e-310
6.95037e-310
0
0
4.66755e-310
6.95037e-310
0
0
4.66755e-310
6.95037e-310
0
0
4.66755e-310
6.95037e-310
0
0
4.66755e-310
6.95037e-310
6.08689e-320
4.74797e-321
4.66755e-310
6.95037e-310
6.08689e-320
4.58987e-321
4.66755e-310
6.95037e-310
6.08689e-320
4.43177e-321
4.66755e-310
6.95037e-310
6.08689e-320
4.27367e-321
4.66755e-310
6.95037e-310
0
4.11557e-321
4.66755e-310
6.95037e-310
0
3.95747e-321
4.66755e-310
6.95037e-310
6.08689e-320
3.79936e-321
4.66755e-310
6.95037e-310
6.08689e-320
3.64126e-321
4.66755e-310
6.95037e-310
6.08689e-320
3.48316e-321
4.66755e-310
6.95037e-310
6.08689e-320
3.32506e-321
4.66755e-310
6.95037e-310
6.08689e-320
3.16696e-321
4.66755e-310
6.95037e-310
6.08689e-320
3.00886e-321
4.66755e-310
6.95037e-310
6.08689e-320
2.85076e-321
4.66755e-310
6.95037e-310
6.08689e-320
2.69266e-321
4.66755e-310
6.95037e-310
0
2.53456e-321
4.66755e-310
6.95037e-310
0
2.37646e-321
4.66755e-310
6.95037e-310
6.08689e-320
2.21835e-321
4.66755e-310
6.95037e-310
6.08689e-320
2.06025e-321
4.66755e-310
6.95037e-310
6.08689e-320
1.90215e-321
4.66755e-310
6.95037e-310
6.08689e-320
1.74405e-321
4.66755e-310
6.95037e-310
6.08689e-320
1.58595e-321
4.66755e-310
6.95037e-310
6.08689e-320
1.42785e-321
4.66755e-310
6.95037e-310
6.08689e-320
1.26975e-321
4.66755e-310
6.95037e-310
6.08689e-320
1.11165e-321
4.66755e-310
6.95037e-310
0
9.53547e-322
4.66755e-310
6.95037e-310
0
7.95446e-322
4.66755e-310
6.95037e-310
6.08689e-320
6.37345e-322
4.66755e-310
6.95037e-310
6.08689e-320
4.79244e-322
4.66755e-310
6.95037e-310
6.08689e-320
3.21143e-322
4.66755e-310
6.95037e-310
6.08689e-320
1.63042e-322
4.66755e-310
6.95037e-310
7.17779e-320
1.58101e-322
4.66755e-310
8.06358e-313
6.08689e-320
9.53547e-322
4.66755e-310
6.95037e-310

VECTORS velocity float
155.496 0 0
155.496 0 0
155.496 0 0
155.496 0 0
155.496 0 0
155.496 0 0
155.496 0 0
155.496 0 0
155.496 0 0
155.496 0 0
155.496 0 0
155.496 0 0
155.496 0 0
155.496 0 0
155.496 0 0
155.496 0 0
155.496 0 0
155.496 0 0
155.496 0 0
155.496 0 0
155.496 0 0
155.496 0 0
155.496 0 0
155.496 0 0
155.496 0 0
155.496 0 0
155.496 0 0
155.496 0 0
155.496 0 0
155.496 0 0
155.496 0 0
155.496 0 0
155.496 0 0
155.496 0 0
155.496 0 0
155.496 0 0
155.496 0 0
155.496 0 0
155.496 0 0
155.496 0 0
155.496 0 0
155.496 0 0
155.496 0 0
155.496 0 0
155.496 0 0
155.496 0 0
155.496 0 0
155.496 0 0
155.496 0 0
155.496 0 0
155.496 0 0
155.496 0 0
155.496 0 0
155.496 0 0
155.496 0 0
155.496 0 0
155.496 0 0
155.496 0 0
155.496 0 0
155.496 0 0
155.496 0 0
155.496 0 0
155.496 0 0
155.496 0 0
155.496 0 0
155.496 0 0
155.496 0 0
155.496 0 0
155.496 0 0
155.496 0 0
155.496 0 0
155.496 0 0
155.496 0 0
155.496 0 0
155.496 0 0
155.496 0 0
155.496 0 0
155.496 0 0
155.496 0 0
155.496 0 0
155.496 0 0
155.496 0 0
155.496 0 0
155.496 0 0
155.496 0 0
155.496 0 0
155.496 0 0
155.496 0 0
155.496 0 0
155.496 0 0
155.496 0 0
155.496 0 0
155.496 0 0
155.496 0 0
155.496 0 0
155.496 0 0
155.496 0 0
155.496 0 0
155.496 0 0
155.496 0 0
155.496 0 0
155.496 0 0
155.496 0 0
155.496 0 0
155.496 0 0
155.496 0 0
155.496 0 0
155.496 0 0
155.496 0 0
155.496 0 0
155.496 0 0
155.496 0 0
155.496 0 0
155.496 0 0
155.496 0 0
155.496 0 0
155.496 0 0
155.496 0 0
155.496 0 0
155.496 0 0
155.496 0 0
155.496 0 0
155.496 0 0
155.496 0 0
155.496 0 0
155.496 0 0
155.496 0 0
155.496 0 0
155.496 0 0
155.496 0 0
155.496 0 0
155.496 0 0
155.496 0 0
155.496 0 0
155.496 0 0
155.496 0 0
155.496 0 0
155.496 0 0
155.496 0 0
155.496 0 0
155.496 0 0
155.496 0 0
155.496 0 0
155.496 0 0
231561
231561
231561
231561
231561
231561
231561
231561
231561
231561
231561
231561
231561
231561
231561
231561
231561
231561
231561
231561
231561
231561
231561
231561
231561
231561
231561
231561
231561
155.496 0 0
155.496 0 0
155.496 0 0
155.496 0 0
155.496 0 0
155.496 0 0
155.496 0 0
155.496 0 0
155.496 0 0
155.496 0 0
155.496 0 0
155.496 0 0
155.496 0 0
155.496 0 0
155.496 0 0
155.496 0 0
155.496 0 0
155.496 0 0
155.496 0 0
155.496 0 0
155.496 0 0
155.496 0 0
155.496 0 0
155.496 0 0
155.496 0 0
155.496 0 0
155.496 0 0
155.496 0 0
155.496 0 0
155.496 0 0
155.496 0 0
155.496 0 0
155.496 0 0
155.496 0 0
155.496 0 0
155.496 0 0
155.496 0 0
155.496 0 0
155.496 0 0
155.496 0 0
155.496 0 0
155.496 0 0
155.496 0 0
155.496 0 0
155.496 0 0
155.496 0 0
155.496 0 0
155.496 0 0
155.496 0 0
155.496 0 0
155.496 0 0
155.496 0 0
155.496 0 0
155.496 0 0
155.496 0 0
155.496 0 0
155.496 0 0
155.496 0 0
155.496 0 0
155.496 0 0
155.496 0 0
155.496 0 0
155.496 0 0
155.496 0 0
155.496 0 0
155.496 0 0
155.496 0 0
155.496 0 0
155.496 0 0
155.496 0 0
155.496 0 0
155.496 0 0
155.496 0 0
155.496 0 0
155.496 0 0
155.496 0 0
155.496 0 0
155.496 0 0
155.496 0 0
155.496 0 0
155.496 0 0
155.496 0 0
155.496 0 0
155.496 0 0
155.496 0 0
155.496 0 0
155.496 0 0
155.496 0 0
155.496 0 0
155.496 0 0
155.496 0 0
155.496 0 0
155.496 0 0
155.496 0 0
155.496 0 0
155.496 0 0
155.496 0 0
155.496 0 0
155.496 0 0
155.496 0 0
155.496 0 0
155.496 0 0
155.496 0 0
155.496 0 0
155.496 0 0
155.496 0 0
155.496 0 0
155.496 0 0
155.496 0 0
155.496 0 0
155.496 0 0
155.496 0 0
155.496 0 0
155.496 0 0
155.496 0 0
155.496 0 0
155.496 0 0
155.496 0 0
155.496 0 0
155.496 0 0
155.496 0 0
155.496 0 0
155.496 0 0
155.496 0 0
155.496 0 0
155.496 0 0
155.496 0 0
155.496 0 0
155.496 0 0
155.496 0 0
155.496 0 0
155.496 0 0
155.496 0 0
155.496 0 0
155.496 0 0
155.496 0 0
155.496 0 0
155.496 0 0
155.496 0 0
155.496 0 0
155.496 0 0
155.496 0 0
155.496 0 0
155.496 0 0
155.496 0 0
155.496 0 0

