# vtk DataFile Version 2.0
Unstructured Grid Example
ASCII
DATASET UNSTRUCTURED_GRID

POINTS 7702 float
0 0 0 
1 0 0 
2 0 0 
3 0 0 
3 1 0 
2 1 0 
1 1 0 
0 1 0 
1.5 -1.3 0 
1.01915 0.00720301 0 
1.0384 0.014124 0 
1.05775 0.0207616 0 
1.07719 0.0271143 0 
1.09673 0.0331807 0 
1.11635 0.0389596 0 
1.13606 0.0444496 0 
1.15584 0.0496497 0 
1.1757 0.0545586 0 
1.19563 0.0591753 0 
1.21562 0.0634989 0 
1.23568 0.0675283 0 
1.25579 0.0712628 0 
1.27596 0.0747014 0 
1.29617 0.0778436 0 
1.31643 0.0806885 0 
1.33672 0.0832357 0 
1.35706 0.0854844 0 
1.37742 0.0874343 0 
1.39781 0.089085 0 
1.41822 0.090436 0 
1.43865 0.091487 0 
1.45909 0.092238 0 
1.47954 0.0926886 0 
1.5 0.0928388 0 
1.52046 0.0926886 0 
1.54091 0.092238 0 
1.56135 0.091487 0 
1.58178 0.090436 0 
1.60219 0.089085 0 
1.62258 0.0874343 0 
1.64294 0.0854844 0 
1.66328 0.0832357 0 
1.68357 0.0806885 0 
1.70383 0.0778436 0 
1.72404 0.0747014 0 
1.74421 0.0712628 0 
1.76432 0.0675283 0 
1.78438 0.0634989 0 
1.80437 0.0591753 0 
1.8243 0.0545586 0 
1.84416 0.0496497 0 
1.86394 0.0444496 0 
1.88365 0.0389596 0 
1.90327 0.0331807 0 
1.92281 0.0271143 0 
1.94225 0.0207616 0 
1.9616 0.014124 0 
1.98085 0.00720301 0 
0.02 0 0 
0.04 0 0 
0.06 0 0 
0.08 0 0 
0.1 0 0 
0.12 0 0 
0.14 0 0 
0.16 0 0 
0.18 0 0 
0.2 0 0 
0.22 0 0 
0.24 0 0 
0.26 0 0 
0.28 0 0 
0.3 0 0 
0.32 0 0 
0.34 0 0 
0.36 0 0 
0.38 0 0 
0.4 0 0 
0.42 0 0 
0.44 0 0 
0.46 0 0 
0.48 0 0 
0.5 0 0 
0.52 0 0 
0.54 0 0 
0.56 0 0 
0.58 0 0 
0.6 0 0 
0.62 0 0 
0.64 0 0 
0.66 0 0 
0.68 0 0 
0.7 0 0 
0.72 0 0 
0.74 0 0 
0.76 0 0 
0.78 0 0 
0.8 0 0 
0.82 0 0 
0.84 0 0 
0.86 0 0 
0.88 0 0 
0.9 0 0 
0.92 0 0 
0.94 0 0 
0.96 0 0 
0.98 0 0 
2.02 0 0 
2.04 0 0 
2.06 0 0 
2.08 0 0 
2.1 0 0 
2.12 0 0 
2.14 0 0 
2.16 0 0 
2.18 0 0 
2.2 0 0 
2.22 0 0 
2.24 0 0 
2.26 0 0 
2.28 0 0 
2.3 0 0 
2.32 0 0 
2.34 0 0 
2.36 0 0 
2.38 0 0 
2.4 0 0 
2.42 0 0 
2.44 0 0 
2.46 0 0 
2.48 0 0 
2.5 0 0 
2.52 0 0 
2.54 0 0 
2.56 0 0 
2.58 0 0 
2.6 0 0 
2.62 0 0 
2.64 0 0 
2.66 0 0 
2.68 0 0 
2.7 0 0 
2.72 0 0 
2.74 0 0 
2.76 0 0 
2.78 0 0 
2.8 0 0 
2.82 0 0 
2.84 0 0 
2.86 0 0 
2.88 0 0 
2.9 0 0 
2.92 0 0 
2.94 0 0 
2.96 0 0 
2.98 0 0 
3 0.02 0 
3 0.04 0 
3 0.06 0 
3 0.08 0 
3 0.1 0 
3 0.12 0 
3 0.14 0 
3 0.16 0 
3 0.18 0 
3 0.2 0 
3 0.22 0 
3 0.24 0 
3 0.26 0 
3 0.28 0 
3 0.3 0 
3 0.32 0 
3 0.34 0 
3 0.36 0 
3 0.38 0 
3 0.4 0 
3 0.42 0 
3 0.44 0 
3 0.46 0 
3 0.48 0 
3 0.5 0 
3 0.52 0 
3 0.54 0 
3 0.56 0 
3 0.58 0 
3 0.6 0 
3 0.62 0 
3 0.64 0 
3 0.66 0 
3 0.68 0 
3 0.7 0 
3 0.72 0 
3 0.74 0 
3 0.76 0 
3 0.78 0 
3 0.8 0 
3 0.82 0 
3 0.84 0 
3 0.86 0 
3 0.88 0 
3 0.9 0 
3 0.92 0 
3 0.94 0 
3 0.96 0 
3 0.98 0 
2.98 1 0 
2.96 1 0 
2.94 1 0 
2.92 1 0 
2.9 1 0 
2.88 1 0 
2.86 1 0 
2.84 1 0 
2.82 1 0 
2.8 1 0 
2.78 1 0 
2.76 1 0 
2.74 1 0 
2.72 1 0 
2.7 1 0 
2.68 1 0 
2.66 1 0 
2.64 1 0 
2.62 1 0 
2.6 1 0 
2.58 1 0 
2.56 1 0 
2.54 1 0 
2.52 1 0 
2.5 1 0 
2.48 1 0 
2.46 1 0 
2.44 1 0 
2.42 1 0 
2.4 1 0 
2.38 1 0 
2.36 1 0 
2.34 1 0 
2.32 1 0 
2.3 1 0 
2.28 1 0 
2.26 1 0 
2.24 1 0 
2.22 1 0 
2.2 1 0 
2.18 1 0 
2.16 1 0 
2.14 1 0 
2.12 1 0 
2.1 1 0 
2.08 1 0 
2.06 1 0 
2.04 1 0 
2.02 1 0 
1.98 1 0 
1.96 1 0 
1.94 1 0 
1.92 1 0 
1.9 1 0 
1.88 1 0 
1.86 1 0 
1.84 1 0 
1.82 1 0 
1.8 1 0 
1.78 1 0 
1.76 1 0 
1.74 1 0 
1.72 1 0 
1.7 1 0 
1.68 1 0 
1.66 1 0 
1.64 1 0 
1.62 1 0 
1.6 1 0 
1.58 1 0 
1.56 1 0 
1.54 1 0 
1.52 1 0 
1.5 1 0 
1.48 1 0 
1.46 1 0 
1.44 1 0 
1.42 1 0 
1.4 1 0 
1.38 1 0 
1.36 1 0 
1.34 1 0 
1.32 1 0 
1.3 1 0 
1.28 1 0 
1.26 1 0 
1.24 1 0 
1.22 1 0 
1.2 1 0 
1.18 1 0 
1.16 1 0 
1.14 1 0 
1.12 1 0 
1.1 1 0 
1.08 1 0 
1.06 1 0 
1.04 1 0 
1.02 1 0 
0.98 1 0 
0.96 1 0 
0.94 1 0 
0.92 1 0 
0.9 1 0 
0.88 1 0 
0.86 1 0 
0.84 1 0 
0.82 1 0 
0.8 1 0 
0.78 1 0 
0.76 1 0 
0.74 1 0 
0.72 1 0 
0.7 1 0 
0.68 1 0 
0.66 1 0 
0.64 1 0 
0.62 1 0 
0.6 1 0 
0.58 1 0 
0.56 1 0 
0.54 1 0 
0.52 1 0 
0.5 1 0 
0.48 1 0 
0.46 1 0 
0.44 1 0 
0.42 1 0 
0.4 1 0 
0.38 1 0 
0.36 1 0 
0.34 1 0 
0.32 1 0 
0.3 1 0 
0.28 1 0 
0.26 1 0 
0.24 1 0 
0.22 1 0 
0.2 1 0 
0.18 1 0 
0.16 1 0 
0.14 1 0 
0.12 1 0 
0.1 1 0 
0.08 1 0 
0.06 1 0 
0.04 1 0 
0.02 1 0 
0 0.98 0 
0 0.96 0 
0 0.94 0 
0 0.92 0 
0 0.9 0 
0 0.88 0 
0 0.86 0 
0 0.84 0 
0 0.82 0 
0 0.8 0 
0 0.78 0 
0 0.76 0 
0 0.74 0 
0 0.72 0 
0 0.7 0 
0 0.68 0 
0 0.66 0 
0 0.64 0 
0 0.62 0 
0 0.6 0 
0 0.58 0 
0 0.56 0 
0 0.54 0 
0 0.52 0 
0 0.5 0 
0 0.48 0 
0 0.46 0 
0 0.44 0 
0 0.42 0 
0 0.4 0 
0 0.38 0 
0 0.36 0 
0 0.34 0 
0 0.32 0 
0 0.3 0 
0 0.28 0 
0 0.26 0 
0 0.24 0 
0 0.22 0 
0 0.2 0 
0 0.18 0 
0 0.16 0 
0 0.14 0 
0 0.12 0 
0 0.1 0 
0 0.08 0 
0 0.06 0 
0 0.04 0 
0 0.02 0 
1 0.02 0 
1 0.04 0 
1 0.06 0 
1 0.08 0 
1 0.1 0 
1 0.12 0 
1 0.14 0 
1 0.16 0 
1 0.18 0 
1 0.2 0 
1 0.22 0 
1 0.24 0 
1 0.26 0 
1 0.28 0 
1 0.3 0 
1 0.32 0 
1 0.34 0 
1 0.36 0 
1 0.38 0 
1 0.4 0 
1 0.42 0 
1 0.44 0 
1 0.46 0 
1 0.48 0 
1 0.5 0 
1 0.52 0 
1 0.54 0 
1 0.56 0 
1 0.58 0 
1 0.6 0 
1 0.62 0 
1 0.64 0 
1 0.66 0 
1 0.68 0 
1 0.7 0 
1 0.72 0 
1 0.74 0 
1 0.76 0 
1 0.78 0 
1 0.8 0 
1 0.82 0 
1 0.84 0 
1 0.86 0 
1 0.88 0 
1 0.9 0 
1 0.92 0 
1 0.94 0 
1 0.96 0 
1 0.98 0 
2 0.02 0 
2 0.04 0 
2 0.06 0 
2 0.08 0 
2 0.1 0 
2 0.12 0 
2 0.14 0 
2 0.16 0 
2 0.18 0 
2 0.2 0 
2 0.22 0 
2 0.24 0 
2 0.26 0 
2 0.28 0 
2 0.3 0 
2 0.32 0 
2 0.34 0 
2 0.36 0 
2 0.38 0 
2 0.4 0 
2 0.42 0 
2 0.44 0 
2 0.46 0 
2 0.48 0 
2 0.5 0 
2 0.52 0 
2 0.54 0 
2 0.56 0 
2 0.58 0 
2 0.6 0 
2 0.62 0 
2 0.64 0 
2 0.66 0 
2 0.68 0 
2 0.7 0 
2 0.72 0 
2 0.74 0 
2 0.76 0 
2 0.78 0 
2 0.8 0 
2 0.82 0 
2 0.84 0 
2 0.86 0 
2 0.88 0 
2 0.9 0 
2 0.92 0 
2 0.94 0 
2 0.96 0 
2 0.98 0 
2.98 0.98 0 
2.98 0.96 0 
2.98 0.94 0 
2.98 0.92 0 
2.98 0.9 0 
2.98 0.88 0 
2.98 0.86 0 
2.98 0.84 0 
2.98 0.82 0 
2.98 0.8 0 
2.98 0.78 0 
2.98 0.76 0 
2.98 0.74 0 
2.98 0.72 0 
2.98 0.7 0 
2.98 0.68 0 
2.98 0.66 0 
2.98 0.64 0 
2.98 0.62 0 
2.98 0.6 0 
2.98 0.58 0 
2.98 0.56 0 
2.98 0.54 0 
2.98 0.52 0 
2.98 0.5 0 
2.98 0.48 0 
2.98 0.46 0 
2.98 0.44 0 
2.98 0.42 0 
2.98 0.4 0 
2.98 0.38 0 
2.98 0.36 0 
2.98 0.34 0 
2.98 0.32 0 
2.98 0.3 0 
2.98 0.28 0 
2.98 0.26 0 
2.98 0.24 0 
2.98 0.22 0 
2.98 0.2 0 
2.98 0.18 0 
2.98 0.16 0 
2.98 0.14 0 
2.98 0.12 0 
2.98 0.1 0 
2.98 0.08 0 
2.98 0.06 0 
2.98 0.04 0 
2.98 0.02 0 
2.96 0.98 0 
2.96 0.96 0 
2.96 0.94 0 
2.96 0.92 0 
2.96 0.9 0 
2.96 0.88 0 
2.96 0.86 0 
2.96 0.84 0 
2.96 0.82 0 
2.96 0.8 0 
2.96 0.78 0 
2.96 0.76 0 
2.96 0.74 0 
2.96 0.72 0 
2.96 0.7 0 
2.96 0.68 0 
2.96 0.66 0 
2.96 0.64 0 
2.96 0.62 0 
2.96 0.6 0 
2.96 0.58 0 
2.96 0.56 0 
2.96 0.54 0 
2.96 0.52 0 
2.96 0.5 0 
2.96 0.48 0 
2.96 0.46 0 
2.96 0.44 0 
2.96 0.42 0 
2.96 0.4 0 
2.96 0.38 0 
2.96 0.36 0 
2.96 0.34 0 
2.96 0.32 0 
2.96 0.3 0 
2.96 0.28 0 
2.96 0.26 0 
2.96 0.24 0 
2.96 0.22 0 
2.96 0.2 0 
2.96 0.18 0 
2.96 0.16 0 
2.96 0.14 0 
2.96 0.12 0 
2.96 0.1 0 
2.96 0.08 0 
2.96 0.06 0 
2.96 0.04 0 
2.96 0.02 0 
2.94 0.98 0 
2.94 0.96 0 
2.94 0.94 0 
2.94 0.92 0 
2.94 0.9 0 
2.94 0.88 0 
2.94 0.86 0 
2.94 0.84 0 
2.94 0.82 0 
2.94 0.8 0 
2.94 0.78 0 
2.94 0.76 0 
2.94 0.74 0 
2.94 0.72 0 
2.94 0.7 0 
2.94 0.68 0 
2.94 0.66 0 
2.94 0.64 0 
2.94 0.62 0 
2.94 0.6 0 
2.94 0.58 0 
2.94 0.56 0 
2.94 0.54 0 
2.94 0.52 0 
2.94 0.5 0 
2.94 0.48 0 
2.94 0.46 0 
2.94 0.44 0 
2.94 0.42 0 
2.94 0.4 0 
2.94 0.38 0 
2.94 0.36 0 
2.94 0.34 0 
2.94 0.32 0 
2.94 0.3 0 
2.94 0.28 0 
2.94 0.26 0 
2.94 0.24 0 
2.94 0.22 0 
2.94 0.2 0 
2.94 0.18 0 
2.94 0.16 0 
2.94 0.14 0 
2.94 0.12 0 
2.94 0.1 0 
2.94 0.08 0 
2.94 0.06 0 
2.94 0.04 0 
2.94 0.02 0 
2.92 0.98 0 
2.92 0.96 0 
2.92 0.94 0 
2.92 0.92 0 
2.92 0.9 0 
2.92 0.88 0 
2.92 0.86 0 
2.92 0.84 0 
2.92 0.82 0 
2.92 0.8 0 
2.92 0.78 0 
2.92 0.76 0 
2.92 0.74 0 
2.92 0.72 0 
2.92 0.7 0 
2.92 0.68 0 
2.92 0.66 0 
2.92 0.64 0 
2.92 0.62 0 
2.92 0.6 0 
2.92 0.58 0 
2.92 0.56 0 
2.92 0.54 0 
2.92 0.52 0 
2.92 0.5 0 
2.92 0.48 0 
2.92 0.46 0 
2.92 0.44 0 
2.92 0.42 0 
2.92 0.4 0 
2.92 0.38 0 
2.92 0.36 0 
2.92 0.34 0 
2.92 0.32 0 
2.92 0.3 0 
2.92 0.28 0 
2.92 0.26 0 
2.92 0.24 0 
2.92 0.22 0 
2.92 0.2 0 
2.92 0.18 0 
2.92 0.16 0 
2.92 0.14 0 
2.92 0.12 0 
2.92 0.1 0 
2.92 0.08 0 
2.92 0.06 0 
2.92 0.04 0 
2.92 0.02 0 
2.9 0.98 0 
2.9 0.96 0 
2.9 0.94 0 
2.9 0.92 0 
2.9 0.9 0 
2.9 0.88 0 
2.9 0.86 0 
2.9 0.84 0 
2.9 0.82 0 
2.9 0.8 0 
2.9 0.78 0 
2.9 0.76 0 
2.9 0.74 0 
2.9 0.72 0 
2.9 0.7 0 
2.9 0.68 0 
2.9 0.66 0 
2.9 0.64 0 
2.9 0.62 0 
2.9 0.6 0 
2.9 0.58 0 
2.9 0.56 0 
2.9 0.54 0 
2.9 0.52 0 
2.9 0.5 0 
2.9 0.48 0 
2.9 0.46 0 
2.9 0.44 0 
2.9 0.42 0 
2.9 0.4 0 
2.9 0.38 0 
2.9 0.36 0 
2.9 0.34 0 
2.9 0.32 0 
2.9 0.3 0 
2.9 0.28 0 
2.9 0.26 0 
2.9 0.24 0 
2.9 0.22 0 
2.9 0.2 0 
2.9 0.18 0 
2.9 0.16 0 
2.9 0.14 0 
2.9 0.12 0 
2.9 0.1 0 
2.9 0.08 0 
2.9 0.06 0 
2.9 0.04 0 
2.9 0.02 0 
2.88 0.98 0 
2.88 0.96 0 
2.88 0.94 0 
2.88 0.92 0 
2.88 0.9 0 
2.88 0.88 0 
2.88 0.86 0 
2.88 0.84 0 
2.88 0.82 0 
2.88 0.8 0 
2.88 0.78 0 
2.88 0.76 0 
2.88 0.74 0 
2.88 0.72 0 
2.88 0.7 0 
2.88 0.68 0 
2.88 0.66 0 
2.88 0.64 0 
2.88 0.62 0 
2.88 0.6 0 
2.88 0.58 0 
2.88 0.56 0 
2.88 0.54 0 
2.88 0.52 0 
2.88 0.5 0 
2.88 0.48 0 
2.88 0.46 0 
2.88 0.44 0 
2.88 0.42 0 
2.88 0.4 0 
2.88 0.38 0 
2.88 0.36 0 
2.88 0.34 0 
2.88 0.32 0 
2.88 0.3 0 
2.88 0.28 0 
2.88 0.26 0 
2.88 0.24 0 
2.88 0.22 0 
2.88 0.2 0 
2.88 0.18 0 
2.88 0.16 0 
2.88 0.14 0 
2.88 0.12 0 
2.88 0.1 0 
2.88 0.08 0 
2.88 0.06 0 
2.88 0.04 0 
2.88 0.02 0 
2.86 0.98 0 
2.86 0.96 0 
2.86 0.94 0 
2.86 0.92 0 
2.86 0.9 0 
2.86 0.88 0 
2.86 0.86 0 
2.86 0.84 0 
2.86 0.82 0 
2.86 0.8 0 
2.86 0.78 0 
2.86 0.76 0 
2.86 0.74 0 
2.86 0.72 0 
2.86 0.7 0 
2.86 0.68 0 
2.86 0.66 0 
2.86 0.64 0 
2.86 0.62 0 
2.86 0.6 0 
2.86 0.58 0 
2.86 0.56 0 
2.86 0.54 0 
2.86 0.52 0 
2.86 0.5 0 
2.86 0.48 0 
2.86 0.46 0 
2.86 0.44 0 
2.86 0.42 0 
2.86 0.4 0 
2.86 0.38 0 
2.86 0.36 0 
2.86 0.34 0 
2.86 0.32 0 
2.86 0.3 0 
2.86 0.28 0 
2.86 0.26 0 
2.86 0.24 0 
2.86 0.22 0 
2.86 0.2 0 
2.86 0.18 0 
2.86 0.16 0 
2.86 0.14 0 
2.86 0.12 0 
2.86 0.1 0 
2.86 0.08 0 
2.86 0.06 0 
2.86 0.04 0 
2.86 0.02 0 
2.84 0.98 0 
2.84 0.96 0 
2.84 0.94 0 
2.84 0.92 0 
2.84 0.9 0 
2.84 0.88 0 
2.84 0.86 0 
2.84 0.84 0 
2.84 0.82 0 
2.84 0.8 0 
[...]
CELL_DATA 7500
SCALARS rho float 1
LOOKUP_TABLE default
1.01343
1.01343
1.01343
1.01343
1.01343
1.01343
1.01343
1.01343
1.01343
1.01343
1.01343
1.01343
1.01343
1.01343
1.01343
1.01343
1.01343
1.01343
1.01343
1.01343
1.01343
1.01343
1.01343
1.01343
1.01343
1.01343
1.01343
1.01343
1.01343
1.01343
1.01343
1.01343
1.01343
1.01343
1.01343
1.01343
1.01343
1.01343
1.01343
1.01343
1.01343
1.01343
1.01343
1.01343
1.01343
1.01343
1.01343
1.01343
1.01343
1.01343
1.00539
1.00539
1.00539
1.00539
1.00539
1.00539
1.00539
1.00539
1.00539
1.00539
1.00539
1.00539
1.00539
1.00539
1.00539
1.00539
1.00539
1.00539
1.00539
1.00539
1.00539
1.00539
1.00539
1.00539
1.00539
1.00539
1.00539
1.00539
1.00539
1.00539
1.00539
1.00539
1.00539
1.00539
1.00539
1.00539
1.00539
1.00539
1.00539
1.00539
1.00539
1.00539
1.00539
1.00539
1.00539
1.00539
1.00539
1.00539
1.00539
1.00539
1.00754
1.00754
1.00754
1.00754
1.00754
1.00754
1.00754
1.00754
1.00754
1.00754
1.00754
1.00754
1.00754
1.00754
1.00754
1.00754
1.00754
1.00754
1.00754
1.00754
1.00754
1.00754
1.00754
1.00754
1.00754
1.00754
1.00754
1.00754
1.00754
1.00754
1.00754
1.00754
1.00754
1.00754
1.00754
1.00754
1.00754
1.00754
1.00754
1.00754
1.00754
1.00754
1.00754
1.00754
1.00754
1.00754
1.00754
1.00754
1.00754
1.00754
1.02085
1.02085
1.02085
1.02085
1.02085
1.02085
1.02085
1.02085
1.02085
1.02085
1.02085
1.02085
1.02085
1.02085
1.02085
1.02085
1.02085
1.02085
1.02085
1.02085
1.02085
1.02085
1.02085
1.02085
1.02085
1.02085
1.02085
1.02085
1.02085
1.02085
1.02085
1.02085
1.02085
1.02085
1.02085
1.02085
1.02085
1.02085
1.02085
1.02085
1.02085
1.02085
1.02085
1.02085
1.02085
1.02085
1.02085
1.02085
1.02085
1.02085
1.04201
1.04201
1.04201
1.04201
1.04201
1.04201
1.04201
1.04201
1.04201
1.04201
1.04201
1.04201
1.04201
1.04201
1.04201
1.04201
1.04201
1.04201
1.04201
1.04201
1.04201
1.04201
1.04201
1.04201
1.04201
1.04201
1.04201
1.04201
1.04201
1.04201
1.04201
1.04201
1.04201
1.04201
1.04201
1.04201
1.04201
1.04201
1.04201
1.04201
1.04201
1.04201
1.04201
1.04201
1.04201
1.04201
1.04201
1.04201
1.04201
1.04201
1.06666
1.06666
1.06666
1.06666
1.06666
1.06666
1.06666
1.06666
1.06666
1.06666
1.06666
1.06666
1.06666
1.06666
1.06666
1.06666
1.06666
1.06666
1.06666
1.06666
1.06666
1.06666
1.06666
1.06666
1.06666
1.06666
1.06666
1.06666
1.06666
1.06666
1.06666
1.06666
1.06666
1.06666
1.06666
1.06666
1.06666
1.06666
1.06666
1.06666
1.06666
1.06666
1.06666
1.06666
1.06666
1.06666
1.06666
1.06666
1.06666
1.06666
1.09098
1.09098
1.09098
1.09098
1.09098
1.09098
1.09098
1.09098
1.09098
1.09098
1.09098
1.09098
1.09098
1.09098
1.09098
1.09098
1.09098
1.09098
1.09098
1.09098
1.09098
1.09098
1.09098
1.09098
1.09098
1.09098
1.09098
1.09098
1.09098
1.09098
1.09098
1.09098
1.09098
1.09098
1.09098
1.09098
1.09098
1.09098
1.09098
1.09098
1.09098
1.09098
1.09098
1.09098
1.09098
1.09098
1.09098
1.09098
1.09098
1.09098
1.11233
1.11233
1.11233
1.11233
1.11233
1.11233
1.11233
1.11233
1.11233
1.11233
1.11233
1.11233
1.11233
1.11233
1.11233
1.11233
1.11233
1.11233
1.11233
1.11233
1.11233
1.11233
1.11233
1.11233
1.11233
1.11233
1.11233
1.11233
1.11233
1.11233
1.11233
1.11233
1.11233
1.11233
1.11233
1.11233
1.11233
1.11233
1.11233
1.11233
1.11233
1.11233
1.11233
1.11233
1.11233
1.11233
1.11233
1.11233
1.11233
1.11233
1.12936
1.12936
1.12936
1.12936
1.12936
1.12936
1.12936
1.12936
1.12936
1.12936
1.12936
1.12936
1.12936
1.12936
1.12936
1.12936
1.12936
1.12936
1.12936
1.12936
1.12936
1.12936
1.12936
1.12936
1.12936
1.12936
1.12936
1.12936
1.12936
1.12936
1.12936
1.12936
1.12936
1.12936
1.12936
1.12936
1.12936
1.12936
1.12936
1.12936
1.12936
1.12936
1.12936
1.12936
1.12936
1.12936
1.12936
1.12936
1.12936
1.12936
1.14181
1.14181
1.14181
1.14181
1.14181
1.14181
1.14181
1.14181
1.14181
1.14181
1.14181
1.14181
1.14181
1.14181
1.14181
1.14181
1.14181
1.14181
1.14181
1.14181
1.14181
1.14181
1.14181
1.14181
1.14181
1.14181
1.14181
1.14181
1.14181
1.14181
1.14181
1.14181
1.14181
1.14181
1.14181
1.14181
1.14181
1.14181
1.14181
1.14181
1.14181
1.14181
1.14181
1.14181
1.14181
1.14181
1.14181
1.14181
1.14181
1.14181
1.1502
1.1502
1.1502
1.1502
1.1502
1.1502
1.1502
1.1502
1.1502
1.1502
1.1502
1.1502
1.1502
1.1502
1.1502
1.1502
1.1502
1.1502
1.1502
1.1502
1.1502
1.1502
1.1502
1.1502
1.1502
1.1502
1.1502
1.1502
1.1502
1.1502
1.1502
1.1502
1.1502
1.1502
1.1502
1.1502
1.1502
1.1502
1.1502
1.1502
1.1502
1.1502
1.1502
1.1502
1.1502
1.1502
1.1502
1.1502
1.1502
1.1502
1.15541
1.15541
1.15541
1.15541
1.15541
1.15541
1.15541
1.15541
1.15541
1.15541
1.15541
1.15541
1.15541
1.15541
1.15541
1.15541
1.15541
1.15541
1.15541
1.15541
1.15541
1.15541
1.15541
1.15541
1.15541
1.15541
1.15541
1.15541
1.15541
1.15541
1.15541
1.15541
1.15541
1.15541
1.15541
1.15541
1.15541
1.15541
1.15541
1.15541
1.15541
1.15541
1.15541
1.15541
1.15541
1.15541
1.15541
1.15541
1.15541
1.15541
1.15841
1.15841
1.15841
1.15841
1.15841
1.15841
1.15841
1.15841
1.15841
1.15841
1.15841
1.15841
1.15841
1.15841
1.15841
1.15841
1.15841
1.15841
1.15841
1.15841
1.15841
1.15841
1.15841
1.15841
1.15841
1.15841
1.15841
1.15841
1.15841
1.15841
1.15841
1.15841
1.15841
1.15841
1.15841
1.15841
1.15841
1.15841
1.15841
1.15841
1.15841
1.15841
1.15841
1.15841
1.15841
1.15841
1.15841
1.15841
1.15841
1.15841
1.16001
1.16001
1.16001
1.16001
1.16001
1.16001
1.16001
1.16001
1.16001
1.16001
1.16001
1.16001
1.16001
1.16001
1.16001
1.16001
1.16001
1.16001
1.16001
1.16001
1.16001
1.16001
1.16001
1.16001
1.16001
1.16001
1.16001
1.16001
1.16001
1.16001
1.16001
1.16001
1.16001
1.16001
1.16001
1.16001
1.16001
1.16001
1.16001
1.16001
1.16001
1.16001
1.16001
1.16001
1.16001
1.16001
1.16001
1.16001
1.16001
1.16001
1.16081
1.16081
1.16081
1.16081
1.16081
1.16081
1.16081
1.16081
1.16081
1.16081
1.16081
1.16081
1.16081
1.16081
1.16081
1.16081
1.16081
1.16081
1.16081
1.16081
1.16081
1.16081
1.16081
1.16081
1.16081
1.16081
1.16081
1.16081
1.16081
1.16081
1.16081
1.16081
1.16081
1.16081
1.16081
1.16081
1.16081
1.16081
1.16081
1.16081
1.16081
1.16081
1.16081
1.16081
1.16081
1.16081
1.16081
1.16081
1.16081
1.16081
1.16118
1.16118
1.16118
1.16118
1.16118
1.16118
1.16118
1.16118
1.16118
1.16118
1.16118
1.16118
1.16118
1.16118
1.16118
1.16118
1.16118
1.16118
1.16118
1.16118
1.16118
1.16118
1.16118
1.16118
1.16118
1.16118
1.16118
1.16118
1.16118
1.16118
1.16118
1.16118
1.16118
1.16118
1.16118
1.16118
1.16118
1.16118
1.16118
1.16118
1.16118
1.16118
1.16118
1.16118
1.16118
1.16118
1.16118
1.16118
1.16118
1.16118
1.16134
1.16134
1.16134
1.16134
1.16134
1.16134
1.16134
1.16134
1.16134
1.16134
1.16134
1.16134
1.16134
1.16134
1.16134
1.16134
1.16134
1.16134
1.16134
1.16134
1.16134
1.16134
1.16134
1.16134
1.16134
1.16134
1.16134
1.16134
1.16134
1.16134
1.16134
1.16134
1.16134
1.16134
1.16134
1.16134
1.16134
1.16134
1.16134
1.16134
1.16134
1.16134
1.16134
1.16134
1.16134
1.16134
1.16134
1.16134
1.16134
1.16134
1.1614
1.1614
1.1614
1.1614
1.1614
1.1614
1.1614
1.1614
1.1614
1.1614
1.1614
1.1614
1.1614
1.1614
1.1614
1.1614
1.1614
1.1614
1.1614
1.1614
1.1614
1.1614
1.1614
1.1614
1.1614
1.1614
1.1614
1.1614
1.1614
1.1614
1.1614
1.1614
1.1614
1.1614
1.1614
1.1614
1.1614
1.1614
1.1614
1.1614
1.1614
1.1614
1.1614
1.1614
1.1614
1.1614
1.1614
1.1614
1.1614
1.1614
1.16143
1.16143
1.16143
1.16143
1.16143
1.16143
1.16143
1.16143
1.16143
1.16143
1.16143
1.16143
1.16143
1.16143
1.16143
1.16143
1.16143
1.16143
1.16143
1.16143
1.16143
1.16143
1.16143
1.16143
1.16143
1.16143
1.16143
1.16143
1.16143
1.16143
1.16143
1.16143
1.16143
1.16143
1.16143
1.16143
1.16143
1.16143
1.16143
1.16143
1.16143
1.16143
1.16143
1.16143
1.16143
1.16143
1.16143
1.16143
1.16143
1.16143
1.16144
1.16144
1.16144
1.16144
1.16144
1.16144
1.16144
1.16144
1.16144
1.16144
1.16144
1.16144
1.16144
1.16144
1.16144
1.16144
1.16144
1.16144
1.16144
1.16144
1.16144
1.16144
1.16144
1.16144
1.16144
1.16144
1.16144
1.16144
1.16144
1.16144
1.16144
1.16144
1.16144
1.16144
1.16144
1.16144
1.16144
1.16144
1.16144
1.16144
1.16144
1.16144
1.16144
1.16144
1.16144
1.16144
1.16144
1.16144
1.16144
1.16144
1.16144
1.16144
1.16144
1.16144
1.16144
1.16144
1.16144
1.16144
1.16144
1.16144
1.16144
1.16144
1.16144
1.16144
1.16144
1.16144
1.16144
1.16144
1.16144
1.16144
1.16144
1.16144
1.16144
1.16144
1.16144
1.16144
1.16144
1.16144
1.16144
1.16144
1.16144
1.16144
1.16144
1.16144
1.16144
1.16144
1.16144
1.16144
1.16144
1.16144
1.16144
1.16144
1.16144
1.16144
1.16144
1.16144
1.16144
1.16144
1.16144
1.16144
1.16144
1.16144
1.16144
1.16144
1.16144
1.16144
1.16144
1.16144
1.16144
1.16144
1.16144
1.16144
1.16144
1.16144
1.16144
1.16144
1.16144
1.16144
1.16144
1.16144
1.16144
1.16144
1.16144
1.16144
1.16144
1.16144
1.16144
1.16144
1.16144
1.16144
1.16144
1.16144
1.16144
1.16144
1.16144
1.16144
1.16144
1.16144
1.16144
1.16144
1.16144
1.16144
1.16144
1.16144
1.16144
1.16144
1.16144
1.16144
1.16144
1.16144
1.16144
1.16144
1.16144
1.16144
1.16144
1.16144
1.16144
1.16144
1.16144
1.16144
1.16144
1.16144
1.16144
1.16144
1.16144
1.16144
1.16144
1.16144
1.16144
1.16144
1.16144
1.16144
1.16144
1.16144
1.16144
1.16144
1.16144
1.16144
1.16144
1.16144
1.16144
1.16144
1.16144
1.16144
1.16144
1.16144
1.16144
1.16144
1.16144
1.16144
1.16144
1.16144
1.16144
1.16144
1.16144
1.16144
1.16144
1.16144
1.16144
1.16144
1.16144
1.16144
1.16144
1.16144
1.16144
1.16144
1.16144
1.16144
1.16144
1.16144
1.16144
1.16144
1.16144
1.16144
1.16144
1.16144
1.16144
1.16144
1.16144
1.16144
1.16144
1.16144
1.16144
1.16144
1.16144
1.16144
1.16144
1.16144
1.16144
1.16144
1.16144
1.16144
1.16144
1.16144
1.16144
1.16144
1.16144
1.16144
1.16144
1.16144
1.16144
1.16144
1.16144
1.16144
1.16144
1.16144
1.16144
1.16144
1.16144
1.16144
1.16144
1.16144
1.16144
1.16144
1.16144
1.16144
1.16144
1.16144
1.16144
1.16144
1.16144
1.16144
1.16144
1.16144
1.16144
1.16144
1.16144
1.16144
1.16144
1.16144
1.16144
1.16144
1.16144
1.16144
1.16144
1.16144
1.16144
1.16144
1.16144
1.16144
1.16144
1.16144
1.16144
1.16144
1.16144
1.16144
1.16144
1.16144
1.16144
1.16144
1.16144
1.16144
1.16144
1.16144
1.16144
1.16144
1.16144
1.16144
1.16144
1.16144
1.16144
1.16144
1.16144
1.16144
1.16144
1.16144
1.16144
1.16144
1.16144
1.16144
1.16144
1.16144
1.16144
1.16144
1.16144
1.16144
1.16144
1.16144
1.16144
1.16144
1.16144
1.16144
1.16144
1.16144
1.16144
1.16144
1.16144
1.16144
1.16144
1.16144
1.16144
1.16144
1.16144
1.16144
1.16144
1.16144
1.16144
1.16144
1.16144
1.16144
1.16144
1.16144
1.16144
1.16144
1.16144
1.16144
1.16144
1.16144
1.16144
1.16144
1.16144
1.16144
1.16144
1.16144
1.16144
1.16144
1.16144
1.16144
1.16144
1.16144
1.16144
1.16144
1.16144
1.16144
1.16144
1.16144
1.16144
1.16144
1.16144
1.16144
1.16144
1.16144
1.16144
1.16144
1.16144
1.16144
1.16144
1.16144
1.16144
1.16144
1.16144
1.16144
1.16144
1.16144
1.16144
1.16144
1.16144
1.16144
1.16144
1.16144
1.16144
1.16144
1.16144
1.16144
1.16144
1.16144
1.16144
1.16144
1.16144
1.16144
1.16144
1.16144
1.16144
1.16144
1.16144
1.16144
1.16144
1.16144
1.16144
1.16144
1.16144
1.16144
1.16144
1.16144
1.16144
1.16144
1.16144
1.16144
1.16144
1.16144
1.16144
1.16144
1.16144
1.16144
1.16144
1.16144
1.16144
1.16144
1.16144
1.16144
1.16144
1.16144
1.16144
1.16144
1.16144
1.16144
1.16144
1.16144
1.16144
1.16144
1.16144
1.16144
1.16144
1.16144
1.16144
1.16144
1.16144
1.16144
1.16144
1.16144
1.16144
1.16144
1.16144
1.16144
1.16144
1.16144
1.16144
1.16144
1.16144
1.16144
1.16144
1.16144
1.16144
1.16144
1.16144
1.16144
1.16144
1.16144
1.16144
1.16144
1.16144
1.16144
1.16144
1.16144
1.16144
1.16144
1.16144
1.16144
1.16144
1.16144
1.16144
1.16144
1.16144
1.16144
1.16144
1.16144
1.16144
1.16144
1.16144
1.16144
1.16144
1.16144
1.16144
1.16144
1.16144
1.16144
1.16144
1.16144
1.16144
1.16144
1.16144
1.16144
1.16144
1.16144
1.16144
1.16144
1.16144
1.16144
1.16144
1.16144
1.16144
1.16144
1.16144
1.16144
1.16144
1.16144
1.16144
1.16144
1.16144
1.16144
1.16144
1.16144
1.16144
1.16144
1.16144
1.16144
1.16144
1.16144
1.16144
1.16144
1.16144
1.16144
1.16144
1.16144
1.16144
1.16144
1.16144
1.16144
1.16144
1.16144
1.16144
1.16144
1.16144
1.16144
1.16144
1.16144
1.16144
1.16144
1.16144
1.16144
1.16144
1.16144
1.16144
1.16144
1.16144
1.16144
1.16144
1.16144
1.16144
1.16144
1.16144
1.16144
1.16144
1.16144
1.16144
1.16144
1.16144
1.16144
1.16144
1.16144
1.16144
1.16144
1.16144
1.16144
1.16144
1.16144
1.16144
1.16144
1.16144
1.16144
1.16144
1.16144
1.16144
1.16144
1.16144
1.16144
1.16144
1.16144
1.16144
1.16144
1.16144
1.16144
1.16144
1.16144
1.16144
1.16144
1.16144
1.16144
1.16144
1.16144
1.16144
1.16144
1.16144
1.16144
1.16144
1.16144
1.16144
1.16144
1.16144
1.16144
1.16144
1.16144
1.16144
1.16144
1.16144
1.16144
1.16144
1.16144
1.16144
1.16144
1.16144
1.16144
1.16144
1.16144
1.16144
1.16144
1.16144
1.16144
1.16144
1.16144
1.16144
1.16144
1.16144
1.16144
1.16144
1.16144
1.16144
1.16144
1.16144
1.16144
1.16144
1.16144
1.16144
1.16144
1.16144
1.16144
1.16144
1.16144
1.16144
1.16144
1.16144
1.16144
1.16144
1.16144
1.16144
1.16144
1.16144
1.16144
1.16144
1.16144
1.16144
1.16144
1.16144
1.16144
1.16144
1.16144
1.16144
1.16144
1.16144
1.16144
1.16144
1.16144
1.16144
1.16144
1.16144
1.16144
1.16144
1.16144
1.16144
1.16144
1.16144
1.16144
1.16144
1.16144
1.16144
1.16144
1.16144
1.16144
1.16144
1.16144
1.16144
1.16144
1.16144
1.16144
1.16144
1.16144
1.16144
1.16144
1.16144
1.16144
1.16144
1.16144
1.16144
1.16144
1.16144
1.16144
1.16144
1.16144
1.16144
1.16144
1.16144
1.16144
1.16144
1.16144
1.16144
1.16144
1.16144
1.16144
1.16144
1.16144
1.16144
1.16144
1.16144
1.16144
1.16144
1.16144
1.16144
1.16144
1.16144
1.16144
1.16144
1.16144
1.16144
1.16144
1.16144
1.16144
1.16144
1.16144
1.16144
1.16144
1.16144
1.16144
1.16144
1.16144
1.16144
1.16144
1.16144
1.16144
1.16144
1.16144
1.16144
1.16144
1.16144
1.16144
1.16144
1.16144
1.16144
1.16144
1.16144
1.16144
1.16144
1.16144
1.16144
1.16144
1.16144
1.16144
1.16144
1.16144
1.16144
1.16144
1.16144
1.16144
1.16144
1.16144
1.16144
1.16144
1.16144
1.16144
1.16144
1.16144
1.16144
1.16144
1.16144
1.16144
1.16144
1.16144
1.16144
1.16144
1.16144
1.16144
1.16144
1.16144
1.16144
1.16144
1.16144
1.16144
1.16144
1.16144
1.16144
1.16144
1.16144
1.16144
1.16144
1.16144
1.16144
1.16144
1.16144
1.16144
1.16144
1.16144
1.16144
1.16144
1.16144
1.16144
1.16144
1.16144
1.16144
1.16144
1.16144
1.16144
1.16144
1.16144
1.16144
1.16144
1.16144
1.16144
1.16144
1.16144
1.16144
1.16144
1.16144
1.16144
1.16144
1.16144
1.16144
1.16144
1.16144
1.16144
1.16144
1.16144
1.16144
1.16144
1.16144
1.16144
1.16144
1.16144
1.16144
1.16144
1.16144
1.16144
1.16144
1.16144
1.16144
1.16144
1.16144
1.16144
1.16144
1.16144
1.16144
1.16144
1.16144
1.16144
1.16144
1.16144
1.16144
1.16144
1.16144
1.16144
1.16144
1.16144
1.16144
1.16144
1.16144
1.16144
1.16144
1.16144
1.16144
1.16144
1.16144
1.16144
1.16144
1.16144
1.16144
1.16144
1.16144
1.16144
1.16144
1.16144
1.16144
1.16144
1.16144
1.16144
1.16144
1.16144
1.16144
1.16144
1.16144
1.16144
1.16144
1.16144
1.16144
1.16144
1.16144
1.16144
1.16144
1.16144
1.16144
1.16144
1.16144
1.16144
1.16144
1.16144
1.16144
1.16144
1.16144
1.16144
1.16144
1.16144
1.16144
1.16144
1.16144
1.16144
1.16144
1.16144
1.16144
1.16144
1.16144
1.16144
1.16144
1.16144
1.16144
1.16144
1.16144
1.16144
1.16144
1.16144
1.16144
1.16144
1.16144
1.16144
1.16144
1.16144
1.16144
1.16144
1.16144
1.16144
1.16144
1.16144
1.16144
1.16144
1.16144
1.16144
1.16144
1.16144
1.16144
1.16144
1.16144
1.16144
1.16144
1.16144
1.16144
1.16144
1.16144
1.16144
1.16144
1.16144
1.16144
1.16144
1.16144
1.16144
1.16144
1.16144
1.16144
1.16144
1.16144
1.16144
1.16144
1.16144
1.16144
1.16144
1.16144
1.16144
1.16144
1.16144
1.16144
1.16144
1.16144
1.16144
1.16144
1.16144
1.16144
1.16144
1.16144
1.16144
1.16144
1.16144
1.16144
1.16144
1.16144
1.16144
1.16144
1.16144
1.16144
1.16144
1.16144
1.16144
1.16144
1.16144
1.16144
1.16144
1.16144
1.16144
1.16144
1.16144
1.16144
1.16144
1.16144
1.16144
1.16144
1.16144
1.16144
1.16144
1.16144
1.16144
1.16144
1.16144
1.16144
1.16144
1.16144
1.16144
1.16144
1.16144
1.16144
1.16144
1.16144
1.16144
1.16144
1.16144
1.16144
1.16144
1.16144
1.16144
1.16144
1.16144
1.16144
1.16144
1.16144
1.16144
1.16144
1.16144
1.16144
1.16144
1.16144
1.16144
1.16144
1.16144
1.16144
1.16144
1.16144
1.16144
1.16144
1.16144
1.16144
1.16144
1.16144
1.16144
1.16144
1.16144
1.16144
1.16144
1.16144
1.16144
1.16144
1.16144
1.16144
1.16144
1.16144
1.16144
1.16144
1.16144
1.16144
1.16144
1.16144
1.16144
1.16144
1.16144
1.16144
1.16144
1.16144
1.16144
1.16144
1.16144
1.16144
1.16144
1.16144
1.16144
1.16144
1.16144
1.16144
1.16144
1.16144
1.16144
1.16144
1.16144
1.16144
1.16144
1.16144
1.16144
1.16144
1.16144
1.16144
1.16144
1.16144
1.16144
1.16144
1.16144
1.16144
1.16144
1.16144
1.16144
1.16144
1.16144
1.16144
1.16144
1.16144
1.16144
1.16144
1.16144
1.16144
1.16144
1.16144
1.16144
1.16144
1.16144
1.16144
1.16144
1.16144
1.16144
1.16144
1.16144
1.16144
1.16144
1.16144
1.16144
1.16144
1.16144
1.16144
1.16144
1.16144
1.16144
1.16144
1.16144
1.16144
1.16144
1.16144
1.16144
1.16144
1.16144
1.16144
1.16144
1.16144
1.16144
1.16144
1.16144
1.16144
1.16144
1.16144
1.16144
1.16144
1.16144
1.16144
1.16144
1.16144
1.16144
1.16144
1.16144
1.16144
1.16144
1.16144
1.16144
1.16144
1.16144
1.16144
1.16144
1.16144
1.16144
1.16144
1.16144
1.16144
1.16144
1.16144
1.16144
1.16144
1.16144
1.16144
1.16144
1.16144
1.16144
1.16144
1.16144
1.16144
1.16144
1.16144
1.16144
1.16144
1.16144
1.16144
1.16144
1.16144
1.16144
1.16144
1.16144
1.16144
1.16144
1.16144
1.16144
1.16144
1.16144
1.16144
1.16144
1.16144
1.16144
1.16144
1.16144
1.16144
1.16144
1.16144
1.16144
1.16144
1.16144
1.16144
1.16144
1.16144
1.16144
1.16144
1.16144
1.16144
1.16144
1.16144
1.16144
1.16144
1.16144
1.16144
1.16144
1.16144
1.16144
1.16144
1.16144
1.16144
1.16144
1.16144
1.16144
1.16144
1.16144
1.16144
1.16144
1.16144
1.16144
1.16144
1.16144
1.16144
1.16144
1.16144
1.16144
1.16144
1.16144
1.16144
1.16144
1.16144
1.16144
1.16144
1.16144
1.16144
1.16144
1.16144
1.16144
1.16144
1.16144
1.16144
1.16144
1.16144
1.16144
1.16144
1.16144
1.16144
1.16144
1.16144
1.16144
1.16144
1.16144
1.16144
1.16144
1.16144
1.16144
1.16144
1.16144
1.16144
1.16144
1.16144
1.16144
1.16144
1.16144
1.16144
1.16144
1.16144
1.16144
1.16144
1.16144
1.16144
1.16144
1.16144
1.16144
1.16144
1.16144
1.16144
1.16144
1.16144
1.16144
1.16144
1.16144
1.16144
1.16144
1.16144
1.16144
1.16144
1.16144
1.16144
1.16144
1.16144
1.16144
1.16144
1.16144
1.16144
1.16144
1.16144
1.16144
1.16144
1.16144
1.16144
1.16144
1.16144
1.16144
1.16144
1.16144
1.16144
1.16144
1.16144
1.16144
1.16144
1.16144
1.16144
1.16144
1.16144
1.16144
1.16144
1.16144
1.16144
1.16144
1.16144
1.16144
1.16144
1.16144
1.16144
1.16144
1.16144
1.16144
1.16144
1.16144
1.16144
1.16144
1.16144
1.16144
1.16144
1.16144
1.16144
1.16144
1.16144
1.16144
1.16144
1.16144
1.16144
1.16144
1.16144
1.16144
1.16144
1.16144
1.16144
1.16144
1.16144
1.16144
1.16144
1.16144
1.16144
1.16144
1.16144
1.16144
1.16144
1.16144
1.16144
1.16144
1.16144
1.16144
1.16144
1.16144
1.16144
1.16144
1.16144
1.16144
1.16144
1.16144
1.16144
1.16144
1.16144
1.16144
1.16144
1.16144
1.16144
1.16144
1.16144
1.16144
1.16144
1.16144
1.16144
1.16144
1.16144
1.16144
1.16144
1.16144
1.16144
1.16144
1.16144
1.16144
1.16144
1.16144
1.16144
1.16144
1.16144
1.16144
1.16144
1.16144
1.16144
1.16144
1.16144
1.16144
1.16144
1.16144
1.16144
1.16144
1.16144
1.16144
1.16144
1.16144
1.16144
1.16144
1.16144
1.16144
1.16144
1.16144
1.16144
1.16144
1.16144
1.16144
1.16144
1.16144
1.16144
1.16144
1.16144
1.16144
1.16144
1.16144
1.16144
1.16144
1.16144
1.16144
1.16144
1.16144
1.16144
1.16144
1.16144
1.16144
1.16144
1.16144
1.16144
1.16144
1.16144
1.16144
1.16144
1.16144
1.16144
1.16144
1.16144
1.16144
1.16144
1.16144
1.16144
1.16144
1.16144
1.16144
1.16144
1.16144
1.16144
1.16144
1.16144
1.16144
1.16144
1.16144
1.16144
1.16144
1.16144
1.16144
1.16144
1.16144
1.16144
1.16144
1.16144
1.16144
1.16144
1.16144
1.16144
1.16144
1.16144
1.16144
1.16144
1.16144
1.16144
1.16144
1.16144
1.16144
1.16144
1.16144
1.16144
1.16144
1.16144
1.16144
1.16144
1.16144
1.16144
1.16144
1.16144
1.16144
1.16144
1.16144
1.16144
1.16144
1.16144
1.16144
1.16144
1.16144
1.16144
1.16144
1.16144
1.16144
1.16144
1.16144
1.16144