# vtk DataFile Version 2.0
Unstructured Grid Example
ASCII
DATASET UNSTRUCTURED_GRID

POINTS 1282 float
0 0 0 
1 0 0 
2 0 0 
3 0 0 
3 1 0 
2 1 0 
1 1 0 
0 1 0 
1.5 -1.3 0 
1.04806 0.0174784 0 
1.09673 0.0331807 0 
1.14594 0.047086 0 
1.19563 0.0591753 0 
1.24573 0.0694325 0 
1.29617 0.0778436 0 
1.34689 0.0843974 0 
1.39781 0.089085 0 
1.44887 0.0919 0 
1.5 0.0928388 0 
1.55113 0.0919 0 
1.60219 0.089085 0 
1.65311 0.0843974 0 
1.70383 0.0778436 0 
1.75427 0.0694325 0 
1.80437 0.0591753 0 
1.85406 0.047086 0 
1.90327 0.0331807 0 
1.95194 0.0174784 0 
0.05 0 0 
0.1 0 0 
0.15 0 0 
0.2 0 0 
0.25 0 0 
0.3 0 0 
0.35 0 0 
0.4 0 0 
0.45 0 0 
0.5 0 0 
0.55 0 0 
0.6 0 0 
0.65 0 0 
0.7 0 0 
0.75 0 0 
0.8 0 0 
0.85 0 0 
0.9 0 0 
0.95 0 0 
2.05 0 0 
2.1 0 0 
2.15 0 0 
2.2 0 0 
2.25 0 0 
2.3 0 0 
2.35 0 0 
2.4 0 0 
2.45 0 0 
2.5 0 0 
2.55 0 0 
2.6 0 0 
2.65 0 0 
2.7 0 0 
2.75 0 0 
2.8 0 0 
2.85 0 0 
2.9 0 0 
2.95 0 0 
3 0.05 0 
3 0.1 0 
3 0.15 0 
3 0.2 0 
3 0.25 0 
3 0.3 0 
3 0.35 0 
3 0.4 0 
3 0.45 0 
3 0.5 0 
3 0.55 0 
3 0.6 0 
3 0.65 0 
3 0.7 0 
3 0.75 0 
3 0.8 0 
3 0.85 0 
3 0.9 0 
3 0.95 0 
2.95 1 0 
2.9 1 0 
2.85 1 0 
2.8 1 0 
2.75 1 0 
2.7 1 0 
2.65 1 0 
2.6 1 0 
2.55 1 0 
2.5 1 0 
2.45 1 0 
2.4 1 0 
2.35 1 0 
2.3 1 0 
2.25 1 0 
2.2 1 0 
2.15 1 0 
2.1 1 0 
2.05 1 0 
1.95 1 0 
1.9 1 0 
1.85 1 0 
1.8 1 0 
1.75 1 0 
1.7 1 0 
1.65 1 0 
1.6 1 0 
1.55 1 0 
1.5 1 0 
1.45 1 0 
1.4 1 0 
1.35 1 0 
1.3 1 0 
1.25 1 0 
1.2 1 0 
1.15 1 0 
1.1 1 0 
1.05 1 0 
0.95 1 0 
0.9 1 0 
0.85 1 0 
0.8 1 0 
0.75 1 0 
0.7 1 0 
0.65 1 0 
0.6 1 0 
0.55 1 0 
0.5 1 0 
0.45 1 0 
0.4 1 0 
0.35 1 0 
0.3 1 0 
0.25 1 0 
0.2 1 0 
0.15 1 0 
0.1 1 0 
0.05 1 0 
0 0.95 0 
0 0.9 0 
0 0.85 0 
0 0.8 0 
0 0.75 0 
0 0.7 0 
0 0.65 0 
0 0.6 0 
0 0.55 0 
0 0.5 0 
0 0.45 0 
0 0.4 0 
0 0.35 0 
0 0.3 0 
0 0.25 0 
0 0.2 0 
0 0.15 0 
0 0.1 0 
0 0.05 0 
1 0.05 0 
1 0.1 0 
1 0.15 0 
1 0.2 0 
1 0.25 0 
1 0.3 0 
1 0.35 0 
1 0.4 0 
1 0.45 0 
1 0.5 0 
1 0.55 0 
1 0.6 0 
1 0.65 0 
1 0.7 0 
1 0.75 0 
1 0.8 0 
1 0.85 0 
1 0.9 0 
1 0.95 0 
2 0.05 0 
2 0.1 0 
2 0.15 0 
2 0.2 0 
2 0.25 0 
2 0.3 0 
2 0.35 0 
2 0.4 0 
2 0.45 0 
2 0.5 0 
2 0.55 0 
2 0.6 0 
2 0.65 0 
2 0.7 0 
2 0.75 0 
2 0.8 0 
2 0.85 0 
2 0.9 0 
2 0.95 0 
2.95 0.95 0 
2.95 0.9 0 
2.95 0.85 0 
2.95 0.8 0 
2.95 0.75 0 
2.95 0.7 0 
2.95 0.65 0 
2.95 0.6 0 
2.95 0.55 0 
2.95 0.5 0 
2.95 0.45 0 
2.95 0.4 0 
2.95 0.35 0 
2.95 0.3 0 
2.95 0.25 0 
2.95 0.2 0 
2.95 0.15 0 
2.95 0.1 0 
2.95 0.05 0 
2.9 0.95 0 
2.9 0.9 0 
2.9 0.85 0 
2.9 0.8 0 
2.9 0.75 0 
2.9 0.7 0 
2.9 0.65 0 
2.9 0.6 0 
2.9 0.55 0 
2.9 0.5 0 
2.9 0.45 0 
2.9 0.4 0 
2.9 0.35 0 
2.9 0.3 0 
2.9 0.25 0 
2.9 0.2 0 
2.9 0.15 0 
2.9 0.1 0 
2.9 0.05 0 
2.85 0.95 0 
2.85 0.9 0 
2.85 0.85 0 
2.85 0.8 0 
2.85 0.75 0 
2.85 0.7 0 
2.85 0.65 0 
2.85 0.6 0 
2.85 0.55 0 
2.85 0.5 0 
2.85 0.45 0 
2.85 0.4 0 
2.85 0.35 0 
2.85 0.3 0 
2.85 0.25 0 
2.85 0.2 0 
2.85 0.15 0 
2.85 0.1 0 
2.85 0.05 0 
2.8 0.95 0 
2.8 0.9 0 
2.8 0.85 0 
2.8 0.8 0 
2.8 0.75 0 
2.8 0.7 0 
2.8 0.65 0 
2.8 0.6 0 
2.8 0.55 0 
2.8 0.5 0 
2.8 0.45 0 
2.8 0.4 0 
2.8 0.35 0 
2.8 0.3 0 
2.8 0.25 0 
2.8 0.2 0 
2.8 0.15 0 
2.8 0.1 0 
2.8 0.05 0 
2.75 0.95 0 
2.75 0.9 0 
2.75 0.85 0 
2.75 0.8 0 
2.75 0.75 0 
2.75 0.7 0 
2.75 0.65 0 
2.75 0.6 0 
2.75 0.55 0 
2.75 0.5 0 
2.75 0.45 0 
2.75 0.4 0 
2.75 0.35 0 
2.75 0.3 0 
2.75 0.25 0 
2.75 0.2 0 
2.75 0.15 0 
2.75 0.1 0 
2.75 0.05 0 
2.7 0.95 0 
2.7 0.9 0 
2.7 0.85 0 
2.7 0.8 0 
2.7 0.75 0 
2.7 0.7 0 
2.7 0.65 0 
2.7 0.6 0 
2.7 0.55 0 
2.7 0.5 0 
2.7 0.45 0 
2.7 0.4 0 
2.7 0.35 0 
2.7 0.3 0 
2.7 0.25 0 
2.7 0.2 0 
2.7 0.15 0 
2.7 0.1 0 
2.7 0.05 0 
2.65 0.95 0 
2.65 0.9 0 
2.65 0.85 0 
2.65 0.8 0 
2.65 0.75 0 
2.65 0.7 0 
2.65 0.65 0 
2.65 0.6 0 
2.65 0.55 0 
2.65 0.5 0 
2.65 0.45 0 
2.65 0.4 0 
2.65 0.35 0 
2.65 0.3 0 
2.65 0.25 0 
2.65 0.2 0 
2.65 0.15 0 
2.65 0.1 0 
2.65 0.05 0 
2.6 0.95 0 
2.6 0.9 0 
2.6 0.85 0 
2.6 0.8 0 
2.6 0.75 0 
2.6 0.7 0 
2.6 0.65 0 
2.6 0.6 0 
2.6 0.55 0 
2.6 0.5 0 
2.6 0.45 0 
2.6 0.4 0 
2.6 0.35 0 
2.6 0.3 0 
2.6 0.25 0 
2.6 0.2 0 
2.6 0.15 0 
2.6 0.1 0 
2.6 0.05 0 
2.55 0.95 0 
2.55 0.9 0 
2.55 0.85 0 
2.55 0.8 0 
2.55 0.75 0 
2.55 0.7 0 
2.55 0.65 0 
2.55 0.6 0 
2.55 0.55 0 
2.55 0.5 0 
2.55 0.45 0 
2.55 0.4 0 
2.55 0.35 0 
2.55 0.3 0 
2.55 0.25 0 
2.55 0.2 0 
2.55 0.15 0 
2.55 0.1 0 
2.55 0.05 0 
2.5 0.95 0 
2.5 0.9 0 
2.5 0.85 0 
2.5 0.8 0 
2.5 0.75 0 
2.5 0.7 0 
2.5 0.65 0 
2.5 0.6 0 
2.5 0.55 0 
2.5 0.5 0 
2.5 0.45 0 
2.5 0.4 0 
2.5 0.35 0 
2.5 0.3 0 
2.5 0.25 0 
2.5 0.2 0 
2.5 0.15 0 
2.5 0.1 0 
2.5 0.05 0 
2.45 0.95 0 
2.45 0.9 0 
2.45 0.85 0 
2.45 0.8 0 
2.45 0.75 0 
2.45 0.7 0 
2.45 0.65 0 
2.45 0.6 0 
2.45 0.55 0 
2.45 0.5 0 
2.45 0.45 0 
2.45 0.4 0 
2.45 0.35 0 
2.45 0.3 0 
2.45 0.25 0 
2.45 0.2 0 
2.45 0.15 0 
2.45 0.1 0 
2.45 0.05 0 
2.4 0.95 0 
2.4 0.9 0 
2.4 0.85 0 
2.4 0.8 0 
2.4 0.75 0 
2.4 0.7 0 
2.4 0.65 0 
2.4 0.6 0 
2.4 0.55 0 
2.4 0.5 0 
2.4 0.45 0 
2.4 0.4 0 
2.4 0.35 0 
2.4 0.3 0 
2.4 0.25 0 
2.4 0.2 0 
2.4 0.15 0 
2.4 0.1 0 
2.4 0.05 0 
2.35 0.95 0 
2.35 0.9 0 
2.35 0.85 0 
2.35 0.8 0 
2.35 0.75 0 
2.35 0.7 0 
2.35 0.65 0 
2.35 0.6 0 
2.35 0.55 0 
2.35 0.5 0 
2.35 0.45 0 
2.35 0.4 0 
2.35 0.35 0 
2.35 0.3 0 
2.35 0.25 0 
2.35 0.2 0 
2.35 0.15 0 
2.35 0.1 0 
2.35 0.05 0 
2.3 0.95 0 
2.3 0.9 0 
2.3 0.85 0 
2.3 0.8 0 
2.3 0.75 0 
2.3 0.7 0 
2.3 0.65 0 
2.3 0.6 0 
2.3 0.55 0 
2.3 0.5 0 
2.3 0.45 0 
2.3 0.4 0 
2.3 0.35 0 
2.3 0.3 0 
2.3 0.25 0 
2.3 0.2 0 
2.3 0.15 0 
2.3 0.1 0 
2.3 0.05 0 
2.25 0.95 0 
2.25 0.9 0 
2.25 0.85 0 
2.25 0.8 0 
2.25 0.75 0 
2.25 0.7 0 
2.25 0.65 0 
2.25 0.6 0 
2.25 0.55 0 
2.25 0.5 0 
2.25 0.45 0 
2.25 0.4 0 
2.25 0.35 0 
2.25 0.3 0 
2.25 0.25 0 
2.25 0.2 0 
2.25 0.15 0 
2.25 0.1 0 
2.25 0.05 0 
2.2 0.95 0 
2.2 0.9 0 
2.2 0.85 0 
2.2 0.8 0 
2.2 0.75 0 
2.2 0.7 0 
2.2 0.65 0 
2.2 0.6 0 
2.2 0.55 0 
2.2 0.5 0 
2.2 0.45 0 
2.2 0.4 0 
2.2 0.35 0 
2.2 0.3 0 
2.2 0.25 0 
2.2 0.2 0 
2.2 0.15 0 
2.2 0.1 0 
2.2 0.05 0 
2.15 0.95 0 
2.15 0.9 0 
2.15 0.85 0 
2.15 0.8 0 
2.15 0.75 0 
2.15 0.7 0 
2.15 0.65 0 
2.15 0.6 0 
2.15 0.55 0 
2.15 0.5 0 
2.15 0.45 0 
2.15 0.4 0 
2.15 0.35 0 
2.15 0.3 0 
2.15 0.25 0 
2.15 0.2 0 
2.15 0.15 0 
2.15 0.1 0 
2.15 0.05 0 
2.1 0.95 0 
2.1 0.9 0 
2.1 0.85 0 
2.1 0.8 0 
2.1 0.75 0 
2.1 0.7 0 
2.1 0.65 0 
2.1 0.6 0 
2.1 0.55 0 
2.1 0.5 0 
2.1 0.45 0 
2.1 0.4 0 
2.1 0.35 0 
2.1 0.3 0 
2.1 0.25 0 
2.1 0.2 0 
2.1 0.15 0 
2.1 0.1 0 
2.1 0.05 0 
2.05 0.95 0 
2.05 0.9 0 
2.05 0.85 0 
2.05 0.8 0 
2.05 0.75 0 
2.05 0.7 0 
2.05 0.65 0 
2.05 0.6 0 
2.05 0.55 0 
2.05 0.5 0 
2.05 0.45 0 
2.05 0.4 0 
2.05 0.35 0 
2.05 0.3 0 
2.05 0.25 0 
2.05 0.2 0 
2.05 0.15 0 
2.05 0.1 0 
2.05 0.05 0 
1.95008 0.950817 0 
1.95015 0.901629 0 
1.95023 0.852441 0 
1.95031 0.803252 0 
1.95038 0.754063 0 
1.95046 0.704874 0 
1.95054 0.655685 0 
1.95061 0.606496 0 
1.95069 0.557307 0 
1.95077 0.508118 0 
1.95084 0.458929 0 
1.95092 0.40974 0 
1.95099 0.360551 0 
1.95107 0.311362 0 
1.95115 0.262173 0 
1.95122 0.212984 0 
1.9513 0.163796 0 
1.95138 0.114635 0 
1.95153 0.0656664 0 
1.90014 0.951578 0 
1.90028 0.90315 0 
1.90041 0.85472 0 
1.90055 0.806289 0 
1.90069 0.757857 0 
1.90082 0.709426 0 
1.90096 0.660994 0 
1.90109 0.612563 0 
1.90123 0.564132 0 
1.90137 0.5157 0 
1.9015 0.467269 0 
1.90164 0.418837 0 
1.90178 0.370406 0 
1.90191 0.321974 0 
1.90205 0.273543 0 
1.90218 0.225112 0 
1.90232 0.176686 0 
1.90248 0.128318 0 
1.90273 0.0802658 0 
1.85018 0.952264 0 
1.85036 0.904521 0 
1.85053 0.856774 0 
1.85071 0.809027 0 
1.85088 0.761279 0 
1.85106 0.713531 0 
1.85123 0.665783 0 
1.85141 0.618036 0 
1.85158 0.570288 0 
1.85176 0.52254 0 
1.85193 0.474792 0 
1.85211 0.427044 0 
1.85229 0.379296 0 
1.85246 0.331549 0 
1.85264 0.283801 0 
1.85281 0.236054 0 
1.85299 0.188316 0 
1.85319 0.140655 0 
1.85349 0.0933567 0 
1.8002 0.952865 0 
1.80039 0.905721 0 
1.80058 0.858574 0 
1.80078 0.811426 0 
1.80097 0.764278 0 
1.80116 0.71713 0 
1.80136 0.669981 0 
1.80155 0.622833 0 
1.80174 0.575685 0 
1.80194 0.528536 0 
1.80213 0.481388 0 
1.80232 0.434239 0 
1.80252 0.387091 0 
1.80271 0.339943 0 
1.8029 0.292794 0 
1.8031 0.245647 0 
1.8033 0.198512 0 
1.80351 0.151462 0 
1.80382 0.104792 0 
1.75019 0.953376 0 
1.75039 0.906743 0 
1.75058 0.860107 0 
1.75077 0.813469 0 
1.75096 0.766832 0 
1.75116 0.720194 0 
1.75135 0.673556 0 
1.75154 0.626918 0 
1.75173 0.58028 0 
1.75192 0.533642 0 
1.75211 0.487004 0 
1.75231 0.440366 0 
1.7525 0.393728 0 
1.75269 0.347091 0 
1.75288 0.300453 0 
1.75307 0.253816 0 
1.75327 0.207193 0 
1.75348 0.16066 0 
1.75378 0.114513 0 
1.70018 0.953795 0 
1.70035 0.907582 0 
1.70052 0.861365 0 
1.7007 0.815147 0 
1.70087 0.768929 0 
1.70105 0.72271 0 
1.70122 0.676492 0 
1.70139 0.630273 0 
1.70157 0.584054 0 
1.70174 0.537836 0 
1.70191 0.491617 0 
1.70209 0.445398 0 
1.70226 0.39918 0 
1.70243 0.352961 0 
1.70261 0.306743 0 
1.70278 0.260526 0 
1.70296 0.214323 0 
1.70315 0.168211 0 
1.70341 0.12249 0 
1.65014 0.954122 0 
1.65029 0.908236 0 
1.65043 0.862346 0 
1.65057 0.816455 0 
1.65071 0.770564 0 
1.65085 0.724672 0 
1.651 0.67878 0 
1.65114 0.632888 0 
1.65128 0.586997 0 
1.65142 0.541105 0 
1.65156 0.495213 0 
1.6517 0.449322 0 
1.65185 0.40343 0 
1.65199 0.357538 0 
1.65213 0.311647 0 
1.65227 0.265757 0 
1.65242 0.219881 0 
1.65257 0.174097 0 
1.65278 0.128707 0 
1.6001 0.954356 0 
1.6002 0.908704 0 
1.6003 0.863048 0 
1.6004 0.817391 0 
1.6005 0.771733 0 
1.6006 0.726075 0 
1.6007 0.680417 0 
1.6008 0.63476 0 
1.6009 0.589102 0 
1.601 0.543444 0 
1.6011 0.497786 0 
1.6012 0.452128 0 
1.6013 0.40647 0 
1.6014 0.360813 0 
1.6015 0.315155 0 
1.6016 0.269499 0 
1.6017 0.223858 0 
1.60181 0.178308 0 
1.60196 0.133154 0 
1.55005 0.954497 0 
1.5501 0.908985 0 
1.55015 0.863469 0 
1.5502 0.817953 0 
1.55026 0.772435 0 
1.55031 0.726918 0 
1.55036 0.681401 0 
1.55041 0.635883 0 
1.55046 0.590366 0 
1.55051 0.544849 0 
1.55056 0.499331 0 
1.55061 0.453814 0 
1.55066 0.408296 0 
1.55071 0.362779 0 
1.55076 0.317262 0 
1.55081 0.271746 0 
1.55087 0.226245 0 
1.55092 0.180837 0 
1.551 0.135825 0 
1.5 0.954544 0 
1.5 0.909078 0 
1.5 0.86361 0 
1.49999 0.81814 0 
1.49999 0.772669 0 
[...]
CELL_DATA 1200
SCALARS rho float 1
LOOKUP_TABLE default
0.542438
0.540052
0.53533
0.528383
0.519417
0.508779
0.497031
0.485034
0.473997
0.46535
0.460338
0.459054
0.460026
0.46084
0.459454
0.455203
0.448864
0.442033
0.436394
0.433237
0.556025
0.553306
0.547911
0.539939
0.529576
0.51714
0.50316
0.488463
0.47426
0.462103
0.453621
0.449639
0.449314
0.450351
0.450223
0.447539
0.442525
0.436567
0.431388
0.428413
0.569827
0.566744
0.560617
0.551544
0.539701
0.525399
0.509157
0.491791
0.474513
0.458948
0.446981
0.440088
0.438181
0.439308
0.44058
0.439801
0.436473
0.431648
0.427069
0.424327
0.583734
0.580248
0.57332
0.563052
0.549633
0.533392
0.514868
0.494898
0.474709
0.455964
0.440679
0.430796
0.42702
0.42797
0.430617
0.431965
0.430636
0.427193
0.423347
0.420887
0.597608
0.593675
0.585864
0.574297
0.559198
0.540948
0.520147
0.497688
0.474833
0.453251
0.434981
0.422188
0.416284
0.416648
0.42043
0.42397
0.424891
0.423076
0.420107
0.417984
0.611276
0.606847
0.598061
0.585084
0.568207
0.5479
0.524869
0.500104
0.474914
0.450942
0.430142
0.414684
0.406449
0.405698
0.410136
0.415731
0.419067
0.419129
0.417211
0.415498
0.624525
0.619545
0.60969
0.595197
0.576461
0.554093
0.52895
0.502145
0.475039
0.449199
0.426404
0.408649
0.397976
0.39551
0.399887
0.407156
0.412956
0.415149
0.414502
0.413306
0.637089
0.631504
0.620494
0.604397
0.583768
0.559406
0.53236
0.503882
0.475354
0.448221
0.423987
0.404351
0.391264
0.386492
0.389897
0.398179
0.406329
0.410896
0.411799
0.411279
0.648646
0.642412
0.630178
0.612436
0.589951
0.563768
0.535147
0.505458
0.476063
0.448211
0.423073
0.401961
0.386596
0.379041
0.380461
0.388809
0.398961
0.406098
0.408898
0.40928
0.65881
0.651898
0.638418
0.619067
0.594878
0.567181
0.53744
0.507088
0.477401
0.449365
0.423786
0.401569
0.384109
0.373513
0.37196
0.379168
0.390667
0.400458
0.405562
0.407158
0.667127
0.659547
0.644874
0.624067
0.598484
0.569733
0.539443
0.509033
0.479607
0.451842
0.426184
0.403169
0.383844
0.370155
0.364844
0.369541
0.381351
0.393662
0.401505
0.40474
0.673087
0.664908
0.649219
0.627278
0.60078
0.571591
0.54142
0.511571
0.482895
0.455748
0.430265
0.406687
0.385741
0.369083
0.359583
0.360396
0.371072
0.385408
0.396386
0.401805
0.676144
0.667526
0.651153
0.628596
0.601863
0.572998
0.543665
0.51496
0.487426
0.461129
0.435975
0.411999
0.389673
0.370308
0.356557
0.352371
0.360116
0.375454
0.389796
0.398068
0.675773
0.666972
0.650431
0.628009
0.601917
0.574237
0.546461
0.519398
0.493284
0.467966
0.443217
0.418957
0.395474
0.373746
0.355984
0.346202
0.349064
0.363696
0.381253
0.393138
0.671497
0.662902
0.646921
0.625591
0.601172
0.575579
0.550021
0.524993
0.500474
0.476189
0.451871
0.427406
0.402968
0.379247
0.357931
0.342543
0.338822
0.350295
0.37022
0.386469
0.66298
0.65511
0.640614
0.621504
0.599855
0.577225
0.55445
0.531744
0.508921
0.485686
0.461807
0.437199
0.411983
0.386632
0.36233
0.341802
0.330563
0.335855
0.35617
0.37728
0.650127
0.643595
0.631631
0.615939
0.598128
0.579244
0.559715
0.539543
0.518488
0.496317
0.472894
0.448204
0.422368
0.395715
0.369012
0.344119
0.325441
0.321614
0.338736
0.36444
0.633176
0.62861
0.620211
0.609053
0.596018
0.581532
0.565626
0.548174
0.528977
0.507921
0.485004
0.460309
0.433996
0.40632
0.37776
0.349416
0.324203
0.30955
0.318065
0.346278
0.612768
0.610682
0.606674
0.600916
0.593373
0.583793
0.571845
0.557329
0.540141
0.520321
0.498014
0.47342
0.446767
0.418301
0.388334
0.357429
0.327085
0.302
0.295576
0.320215
0.589948
0.590595
0.591388
0.591481
0.58985
0.585544
0.57789
0.566602
0.55168
0.533313
0.511797
0.487457
0.460611
0.431543
0.400513
0.367795
0.333902
0.300609
0.275404
0.282062
0.566074
0.569327
0.57476
0.580618
0.58496
0.586155
0.583147
0.57549
0.563224
0.546653
0.526209
0.502344
0.475479
0.445975
0.414117
0.380104
0.344031
0.305849
0.265342
0.225169
0.541936
0.547331
0.556731
0.567842
0.57809
0.585247
0.587795
0.584987
0.576727
0.563329
0.545303
0.523206
0.497565
0.468834
0.437376
0.403452
0.367203
0.328623
0.287566
0.24668
0.519753
0.526254
0.537992
0.552752
0.567815
0.580547
0.588885
0.591575
0.588148
0.578746
0.563865
0.544135
0.52019
0.492597
0.461819
0.428199
0.391945
0.353106
0.31158
0.269846
0.500866
0.507365
0.519575
0.535921
0.554108
0.57146
0.585439
0.594112
0.596386
0.591962
0.581145
0.564558
0.542923
0.516934
0.48718
0.454121
0.418053
0.379098
0.337202
0.294673
0.485998
0.491619
0.502654
0.518454
0.537622
0.557954
0.576772
0.591494
0.600184
0.601809
0.596184
0.583748
0.565245
0.541487
0.513219
0.48105
0.445408
0.406515
0.36439
0.321194
0.4752
0.479485
0.488289
0.50181
0.519733
0.540818
0.562823
0.582894
0.59826
0.606879
0.607726
0.600721
0.586448
0.565783
0.539638
0.508811
0.473912
0.435311
0.393141
0.349448
0.467977
0.470885
0.477133
0.487416
0.50231
0.521741
0.544505
0.568177
0.58959
0.605666
0.614187
0.614122
0.605516
0.589131
0.566004
0.537157
0.50344
0.465437
0.423455
0.37947
0.463535
0.465303
0.469263
0.476218
0.487188
0.503028
0.523831
0.548361
0.573917
0.59689
0.61379
0.622171
0.621001
0.610499
0.591655
0.565703
0.533794
0.496812
0.455319
0.411289
0.461031
0.461997
0.464242
0.468427
0.475566
0.486912
0.503573
0.525817
0.552355
0.580124
0.604939
0.622776
0.630914
0.628353
0.61556
0.593832
0.564646
0.529288
0.488689
0.444916
0.459742
0.460216
0.461356
0.463594
0.467691
0.474796
0.486384
0.50385
0.527692
0.556575
0.586972
0.613952
0.632806
0.640499
0.636133
0.620548
0.595446
0.562603
0.52347
0.480343
0.45914
0.459348
0.459864
0.460927
0.462997
0.466875
0.473827
0.485569
0.503859
0.529515
0.561171
0.594705
0.624203
0.644086
0.65099
0.644252
0.625274
0.596301
0.559479
0.517521
0.458888
0.458969
0.459175
0.459621
0.460538
0.462379
0.465964
0.472669
0.484486
0.503635
0.531383
0.566356
0.603648
0.636033
0.656841
0.662417
0.652581
0.62958
0.596374
0.556338
0.458793
0.458821
0.458894
0.459057
0.459411
0.460167
0.46175
0.464987
0.471356
0.483166
0.503226
0.533426
0.572414
0.614224
0.649858
0.671301
0.674776
0.661022
0.633518
0.596565
0.458762
0.45877
0.458792
0.458844
0.458962
0.459228
0.459823
0.461138
0.463984
0.46993
0.481643
0.502685
0.535807
0.579723
0.626981
0.66617
0.687696
0.688089
0.66971
0.637745
0.458753
0.458755
0.458761
0.458775
0.458808
0.458887
0.459075
0.45952
0.460568
0.462992
0.468431
0.479944
0.502057
0.538723
0.588769
0.642609
0.685539
0.706309
0.702634
0.678956
0.458751
0.458752
0.458753
0.458756
0.458764
0.458783
0.458832
0.458955
0.459268
0.46006
0.462046
0.466891
0.478077
0.501355
0.542378
0.600144
0.66195
0.708669
0.727724
0.718259
0.458751
0.458751
0.458751
0.458752
0.458753
0.458757
0.458767
0.458794
0.458868
0.459071
0.459631
0.461173
0.465335
0.476011
0.500502
0.546893
0.61447
0.686023
0.736668
0.751336
0.458751
0.458751
0.458751
0.458751
0.458751
0.458752
0.458753
0.458758
0.458771
0.45881
0.458929
0.45929
0.460399
0.463782
0.473648
0.49918
0.551977
0.632097
0.716205
0.768612
0.458751
0.458751
0.458751
0.458751
0.458751
0.458751
0.458751
0.458752
0.458753
0.458759
0.458776
0.458835
0.459037
0.459743
0.462226
0.4707
0.496254
0.555606
0.651949
0.750282
0.458751
0.458751
0.458751
0.458751
0.458751
0.458751
0.458751
0.458751
0.458751
0.458751
0.458753
0.458758
0.458779
0.458861
0.459191
0.460567
0.466267
0.487601
0.548185
0.66017
0.458751
0.458751
0.458751
0.458751
0.458751
0.458751
0.458751
0.458751
0.458751
0.458751
0.458751
0.458751
0.458751
0.458751
0.458751
0.458751
0.458751
0.458751
0.458751
0.458751
0.458751
0.458751
0.458751
0.458751
0.458751
0.458751
0.458751
0.458751
0.458751
0.458751
0.458751
0.458751
0.458751
0.458751
0.458751
0.458751
0.458751
0.458751
0.458751
0.458751
0.458751
0.458751
0.458751
0.458751
0.458751
0.458751
0.458751
0.458751
0.458751
0.458751
0.458751
0.458751
0.458751
0.458751
0.458751
0.458751
0.458751
0.458751
0.458751
0.458751
0.458751
0.458751
0.458751
0.458751
0.458751
0.458751
0.458751
0.458751
0.458751
0.458751
0.458751
0.458751
0.458751
0.458751
0.458751
0.458751
0.458751
0.458751
0.458751
0.458751
0.458751
0.458751
0.458751
0.458751
0.458751
0.458751
0.458751
0.458751
0.458751
0.458751
0.458751
0.458751
0.458751
0.458751
0.458751
0.458751
0.458751
0.458751
0.458751
0.458751
0.458751
0.458751
0.458751
0.458751
0.458751
0.458751
0.458751
0.458751
0.458751
0.458751
0.458751
0.458751
0.458751
0.458751
0.458751
0.458751
0.458751
0.458751
0.458751
0.458751
0.458751
0.458751
0.458751
0.458751
0.458751
0.458751
0.458751
0.458751
0.458751
0.458751
0.458751
0.458751
0.458751
0.458751
0.458751
0.458751
0.458751
0.458751
0.458751
0.458751
0.458751
0.458751
0.458751
0.458751
0.458751
0.458751
0.458751
0.458751
0.458751
0.458751
0.458751
0.458751
0.458751
0.458751
0.458751
0.458751
0.458751
0.458751
0.458751
0.458751
0.458751
0.458751
0.458751
0.458751
0.458751
0.458751
0.458751
0.458751
0.458751
0.458751
0.458751
0.458751
0.458751
0.458751
0.458751
0.458751
0.458751
0.458751
0.458751
0.458751
0.458751
0.458751
0.458751
0.458751
0.458751
0.458751
0.458751
0.458751
0.458751
0.458751
0.458751
0.458751
0.458751
0.458751
0.458751
0.458751
0.458751
0.458751
0.458751
0.458751
0.458751
0.458751
0.458751
0.458751
0.458751
0.458751
0.458751
0.458751
0.458751
0.458751
0.458751
0.458751
0.458751
0.458751
0.458751
0.458751
0.458751
0.458751
0.458751
0.458751
0.458751
0.458751
0.458751
0.458751
0.458751
0.458751
0.458751
0.458751
0.458751
0.458751
0.458751
0.458751
0.458751
0.458751
0.458751
0.458751
0.458751
0.458751
0.458751
0.458751
0.458751
0.458751
0.458751
0.458751
0.458751
0.458751
0.458751
0.458751
0.458751
0.458751
0.458751
0.458751
0.458751
0.458751
0.458751
0.458751
0.458751
0.458751
0.458751
0.458751
0.458751
0.458751
0.458751
0.458751
0.458751
0.458751
0.458751
0.458751
0.458751
0.458751
0.458751
0.458751
0.458751
0.458751
0.458751
0.458751
0.458751
0.458751
0.458751
0.458751
0.458751
0.458751
0.458751
0.458751
0.458751
0.458751
0.458751
0.458751
0.458751
0.458751
0.458751
0.458751
0.458751
0.458751
0.458751
0.458751
0.458751
0.458751
0.458751
0.458751
0.458751
0.458751
0.458751
0.458751
0.458751
0.458751
0.458751
0.458751
0.458751
0.458751
0.458751
0.458751
0.458751
0.458751
0.458751
0.458751
0.458751
0.458751
0.458751
0.458751
0.458751
0.458751
0.458751
0.458751
0.458751
0.458751
0.458751
0.458751
0.458751
0.458751
0.458751
0.458751
0.458751
0.458751
0.458751
0.458751
0.458751
0.458751
0.458751
0.458751
0.458751
0.458751
0.458751
0.458751
0.458751
0.458751
0.458751
0.458751
0.458751
0.458751
0.458751
0.458751
0.458751
0.458751
0.458751
0.458751
0.458751
0.458751
0.458751
0.458751
0.458751
0.458751
0.458751
0.458751
0.458751
0.458751
0.458751
0.458751
0.458751
0.458751
0.458751
0.458751
0.458751
0.458751
0.458751
0.458751
0.458751
0.458751
0.458751
0.458751
0.458751
0.458751
0.458751
0.458751
0.458751
0.458751
0.458751
0.458751
0.458751
0.458751
0.458751
0.458751
0.458751
0.458751
0.458751
0.458751
0.458751
0.458751
0.458751
0.458751

SCALARS e float 1
LOOKUP_TABLE default
90458.1
90057.7
89266.9
88107
86614.3
84846.3
82892.9
80887.9
79018.1
77506.6
76552.5
76183
76178.7
76161.6
75798.8
74974.9
73816.4
72593.8
71595.5
71040.2
92533.2
92080.8
91185.4
89867.1
88160.1
86118.7
83827.6
81415.6
79068.7
77025.7
75540.5
74749.6
74533.9
74540.9
74368.7
73789.2
72839.9
71756
70831.6
70306.2
94631.1
94121.9
93113.2
91625.3
89692.3
87368.2
84736.7
81924.5
79116.9
76561.5
74547
73305.8
72835
72841.8
72876.5
72588.8
71902
70996.2
70167.3
69680.1
96734.2
96162.7
95030.2
93359.2
91186.7
88570.3
85597.2
82397.3
79156.6
76126.4
73612.1
71912
71143.3
71105.6
71336.9
71369.8
70990.5
70300.5
69588.4
69147.9
98820.8
98180.2
96912.1
95043.1
92616.9
89699.7
86388.3
82820.6
79186.7
75736.4
72775.8
70633.1
69528.9
69381.9
69766.7
70123.3
70085.7
69648.3
69076.5
68692.8
100864
100147
98730.2
96647.8
93954.9
90732.2
87092.6
83187.6
79212.9
75412.6
72077.2
69532.1
68064.6
67727
68186.3
68837.4
69161.2
69013
68609.9
68296.8
102830
102030
100451
98141.1
95172
91646.3
87699.5
83500.3
79250.3
75180.6
71552.9
68663.4
66820.1
66202
66622.3
67500.6
68185.4
68362.3
68163.1
67940.6
104680
103788
102036
99488
96240.6
92425.9
88207
83771.4
79322.7
75070.9
71235.7
68066.5
65854.5
64869.7
65110.8
66107.1
67125
67658.6
67707.5
67604.2
106364
105375
103442
100652
97136.7
93062.8
88624.6
84024.7
79461.6
75114.9
71152.8
67766
65208.8
63790.5
63700
64663.1
65948.4
66860
67210
67265.9
107824
106736
104621
101599
97842.8
93560.3
88974
84293.9
79703
75341.2
71321.6
67774
64901.8
63016.9
62450.3
63193.5
64632.6
65921.2
66631.8
66901.7
108994
107809
105524
102299
98352.2
93934.1
89287.9
84618.8
80082.6
75773
71750
68088.2
64937.7
62583.1
61430.6
61747.5
63170.1
64796.5
65926.9
66482.7
109797
108530
106105
102729
98669.6
94211.5
89606.4
85040.5
80631.2
76424.7
72435.8
68695.4
65305.4
62504
60710
60400.8
61578.9
63444.6
65040.8
65972.4
110157
108832
106322
102879
98812.1
94429.7
89973.4
85596.3
81370.8
77301.1
73369.1
69575.5
65983.6
62778.5
60341.5
59251.9
59912.9
61836.5
63908.9
65322.9
109996
108656
106143
102748
98808
94630.6
90428.8
86313.2
82311.5
78397.2
74533.6
70704.5
66945.8
63391.3
60353.6
58409.4
58269.5
59969.7
62458
64468.2
109249
107954
105550
102351
98691.6
94852.3
91001.5
87203.9
83451.1
79700.3
75909.5
72057.8
68163.8
64317.9
60752.6
57964.8
56791.2
57886.6
60611.6
63316.6
107870
106700
104546
101710
98494.4
95121
91703.1
88264.7
84775.7
81191.3
77475.6
73611.9
69610.7
65529.3
61524.5
57971.1
55651.8
55698.6
58302.4
61738.6
105852
104898
103149
100853
98236.6
95442.4
92523.9
89475.8
86261.7
82847
79210.5
75345.7
71262.5
66996.3
62641.5
58443.7
55011.7
53608.9
55501.4
59549.7
103236
102589
101395
99799.8
97917.1
95795.8
93431.5
90801.7
87876.9
84641.5
81093.5
77241.2
73099.2
68691.6
64068.8
59365
54966.3
51915.8
52274.4
56485.4
100121
99853.8
99330.1
98556.7
97508.4
96132.3
94371.3
92192.8
89581.9
86545.8
83104.4
79282.8
75105
70592.5
65769.9
60691.9
55539.3
50941.4
48889.3
52160.7
96666.4
96809.7
97007.6
97113.9
96955.7
96376.6
95268.3
93585.8
91329.2
88527.3
85222.1
81456.9
77268
72681.2
67711.4
62369.2
56692.5
50888.5
45991.1
46011.1
93074.2
93602.7
94487.8
95451
96185.1
96432.9
96028.8
94903.4
93061.1
90547
87422.9
83750.1
79579.6
74946.4
69866.7
64336.6
58330.1
51796
44650.6
37324.4
89458.4
90296
91757.7
93491.7
95102.2
96244.7
96683.6
96301.8
95082.1
93069.5
90337.3
86962.8
83013.7
78539.3
73566.7
68097.9
62108.4
55545.1
48326.9
40874.1
86149.5
87139
88928.7
91186.4
93501.5
95473.3
96784.5
97240.2
96765.2
95377
93145.9
90160.3
86505
82246.8
77427.5
72059.2
66121.8
59561.1
52291.8
44690.1
83342.1
84319.4
86158.8
88629
91389.3
94038
96190.3
97549.5
97944.5
97325.1
95731.7
93251.3
89982.5
86012.1
81401.5
76177.9
70329.6
63803.6
56507.5
48770.3
81139.1
81977.3
83625.4
85991.9
88873.8
91946.2
94808.4
97070.1
98434.2
98738.2
97948.1
96122.5
93363
89775.6
85445.4
80421.4
74706.5
68252.6
60962.4
53117.7
79543.9
80178.7
81484.9
83495.5
86169.3
89328.3
92643.4
95689.4
98048.6
99408
99606.1
98622.8
96535.4
93460
89507.8
84756
79230.5
72895.1
65651.6
57736.2
78480
78908.6
79830.4
81350.2
83557.3
86446.4
89846.2
93403.1
96647.2
99116.2
100471
100548
99343.5
96956.1
93516.7
89136.9
83875.3
77717.4
70571.1
62629.5
77827.9
78087.2
78668.6
79691.1
81306.9
83646
86728.6
90380.8
94210.8
97686.5
100285
101634
101568
100103
97365.1
93497.6
88602.2
82699.6
75714
67799.9
77461.5
77602.5
77930.7
78542.9
79588.7
81254
83705.2
86989.3
90927.3
95078
98828.4
101578
102913
102668
100891
97735.6
93351.5
87810.3
81068
73247
77273.6
77342.5
77508.3
77834.3
78431.3
79468.3
81162.2
83721.1
87226.9
91497.4
96029.2
100104
103024
104324
103851
101691
98028.1
92998.8
86611.5
78967.3
77186.2
77216.3
77291
77445
77745.2
78308.1
79318.4
81027
83694.2
87449.8
92112.1
97098.8
101555
104656
105886
105114
102479
98181.9
92307.2
84951.1
77149.6
77161.3
77191.1
77255.4
77387.7
77653.4
78171.4
79141
80851.7
83629.7
87671.3
92800.6
98332.9
103232
106516
107621
106456
103220
98090.6
91178.8
77136
77140
77150.4
77173.8
77224.7
77333.2
77560.7
78025.9
78941.7
80641.5
83534.8
87909.1
93602.1
99792.8
105203
108659
109557
107877
103847
97611.9
77131.5
77132.7
77135.8
77143.2
77160
77198
77283
77470.8
77877.5
78727.1
80402.1
83417.1
88185.2
94568.6
101560
107557
111156
111743
109368
104176
77130.3
77130.6
77131.4
77133.3
77138
77149.2
77175.9
77239.1
77387.8
77731.8
78503.5
80138
83282.9
88525.9
95768.5
103745
110420
114130
114265
110719
77130
77130
77130.2
77130.6
77131.7
77134.4
77141.3
77158.7
77202.8
77314.5
77594
78276.1
79851.1
83134.5
88958.1
97288.8
106504
113998
117801
116923
77129.9
77129.9
77130
77130
77130.2
77130.8
77132.2
77136
77146.3
77174.7
77253
77468.2
78049.1
79538.5
82961.3
89498.3
99236.6
110087
118691
122084
77129.9
77129.9
77129.9
77129.9
77129.9
77130
77130.2
77130.9
77132.7
77138.2
77154.6
77204.6
77358.1
77825.5
79187.9
82720.9
90112.9
101735
114998
124661
77129.9
77129.9
77129.9
77129.9
77129.9
77129.9
77129.9
77130
77130.2
77131
77133.4
77141.5
77169.2
77265.8
77605.4
78762.8
82263.7
90558.2
104897
121528
77129.9
77129.9
77129.9
77129.9
77129.9
77129.9
77129.9
77129.9
77129.9
77130
77130.2
77130.9
77133.8
77144.8
77189.6
77375.5
78145.3
81047.3
89631
107286
77129.9
77129.9
77129.9
77129.9
77129.9
77129.9
77129.9
77129.9
77129.9
77129.9
77129.9
77129.9
77129.9
77129.9
77129.9
77129.9
77129.9
77129.9
77129.9
77129.9
77129.9
77129.9
77129.9
77129.9
77129.9
77129.9
77129.9
77129.9
77129.9
77129.9
77129.9
77129.9
77129.9
77129.9
77129.9
77129.9
77129.9
77129.9
77129.9
77129.9
77129.9
77129.9
77129.9
77129.9
77129.9
77129.9
77129.9
77129.9
77129.9
77129.9
77129.9
77129.9
77129.9
77129.9
77129.9
77129.9
77129.9
77129.9
77129.9
77129.9
77129.9
77129.9
77129.9
77129.9
77129.9
77129.9
77129.9
77129.9
77129.9
77129.9
77129.9
77129.9
77129.9
77129.9
77129.9
77129.9
77129.9
77129.9
77129.9
77129.9
77129.9
77129.9
77129.9
77129.9
77129.9
77129.9
77129.9
77129.9
77129.9
77129.9
77129.9
77129.9
77129.9
77129.9
77129.9
77129.9
77129.9
77129.9
77129.9
77129.9
77129.9
77129.9
77129.9
77129.9
77129.9
77129.9
77129.9
77129.9
77129.9
77129.9
77129.9
77129.9
77129.9
77129.9
77129.9
77129.9
77129.9
77129.9
77129.9
77129.9
77129.9
77129.9
77129.9
77129.9
77129.9
77129.9
77129.9
77129.9
77129.9
77129.9
77129.9
77129.9
77129.9
77129.9
77129.9
77129.9
77129.9
77129.9
77129.9
77129.9
77129.9
77129.9
77129.9
77129.9
77129.9
77129.9
77129.9
77129.9
77129.9
77129.9
77129.9
77129.9
77129.9
77129.9
77129.9
77129.9
77129.9
77129.9
77129.9
77129.9
77129.9
77129.9
77129.9
77129.9
77129.9
77129.9
77129.9
77129.9
77129.9
77129.9
77129.9
77129.9
77129.9
77129.9
77129.9
77129.9
77129.9
77129.9
77129.9
77129.9
77129.9
77129.9
77129.9
77129.9
77129.9
77129.9
77129.9
77129.9
77129.9
77129.9
77129.9
77129.9
77129.9
77129.9
77129.9
77129.9
77129.9
77129.9
77129.9
77129.9
77129.9
77129.9
77129.9
77129.9
77129.9
77129.9
77129.9
77129.9
77129.9
77129.9
77129.9
77129.9
77129.9
77129.9
77129.9
77129.9
77129.9
77129.9
77129.9
77129.9
77129.9
77129.9
77129.9
77129.9
77129.9
77129.9
77129.9
77129.9
77129.9
77129.9
77129.9
77129.9
77129.9
77129.9
77129.9
77129.9
77129.9
77129.9
77129.9
77129.9
77129.9
77129.9
77129.9
77129.9
77129.9
77129.9
77129.9
77129.9
77129.9
77129.9
77129.9
77129.9
77129.9
77129.9
77129.9
77129.9
77129.9
77129.9
77129.9
77129.9
77129.9
77129.9
77129.9
77129.9
77129.9
77129.9
77129.9
77129.9
77129.9
77129.9
77129.9
77129.9
77129.9
77129.9
77129.9
77129.9
77129.9
77129.9
77129.9
77129.9
77129.9
77129.9
77129.9
77129.9
77129.9
77129.9
77129.9
77129.9
77129.9
77129.9
77129.9
77129.9
77129.9
77129.9
77129.9
77129.9
77129.9
77129.9
77129.9
77129.9
77129.9
77129.9
77129.9
77129.9
77129.9
77129.9
77129.9
77129.9
77129.9
77129.9
77129.9
77129.9
77129.9
77129.9
77129.9
77129.9
77129.9
77129.9
77129.9
77129.9
77129.9
77129.9
77129.9
77129.9
77129.9
77129.9
77129.9
77129.9
77129.9
77129.9
77129.9
77129.9
77129.9
77129.9
77129.9
77129.9
77129.9
77129.9
77129.9
77129.9
77129.9
77129.9
77129.9
77129.9
77129.9
77129.9
77129.9
77129.9
77129.9
77129.9
77129.9
77129.9
77129.9
77129.9
77129.9
77129.9
77129.9
77129.9
77129.9
77129.9
77129.9
77129.9
77129.9
77129.9
77129.9
77129.9
77129.9
77129.9
77129.9
77129.9
77129.9
77129.9
77129.9
77129.9
77129.9
77129.9
77129.9
77129.9
77129.9
77129.9